/*--------------------------------*- C++ -*----------------------------------*\
  =========                 |
  \\      /  F ield         | OpenFOAM: The Open Source CFD Toolbox
   \\    /   O peration     | Website:  https://openfoam.org
    \\  /    A nd           | Version:  7
     \\/     M anipulation  |
\*---------------------------------------------------------------------------*/
FoamFile
{
    version     2.0;
    format      ascii;
    class       volVectorField;
    location    "0.0021";
    object      grad(generalizedNewtonian:nu);
}
// * * * * * * * * * * * * * * * * * * * * * * * * * * * * * * * * * * * * * //

dimensions      [0 1 -1 0 0 0 0];

internalField   nonuniform List<vector> 
1167
(
(-801.2531242 0 8223.893726)
(-79.21549065 0 8166.043278)
(-560.2233013 1.801403496e-10 8232.982431)
(-1452.377604 0 8224.554911)
(-1588.734993 -1.057871818e-10 8203.556462)
(-1889.218741 0 8187.986249)
(-2189.661583 0 8168.920932)
(-2456.449808 0 8143.527944)
(-2698.243138 6.259201738e-11 8112.126937)
(-2915.314582 0 8074.265269)
(-3106.053791 -2.678053401e-11 8029.447198)
(-3270.845375 -5.027765715e-11 7977.568707)
(-3410.960846 0 7918.966188)
(-3526.457034 0 7853.239305)
(-3620.467655 2.166252817e-11 7781.108215)
(-3695.574595 2.083210746e-11 7703.674829)
(-3755.120177 0 7621.607444)
(-3803.514846 -1.949692584e-11 7536.126787)
(-782.570068 0 8026.915297)
(-81.23745107 -3.045264853e-10 7968.960029)
(-541.2725063 0 8031.79602)
(-1406.563743 -1.378991513e-10 8021.158103)
(-1539.084971 -1.102767305e-10 7997.330551)
(-1827.230678 0 7978.229231)
(-2116.905167 0 7954.367356)
(-2373.156014 0 7924.363831)
(-2603.88162 0 7887.994559)
(-2810.292994 3.001169709e-11 7844.95766)
(-2991.606527 0 7795.119375)
(-3147.737621 0 7738.682849)
(-3278.734763 2.478601829e-11 7674.842783)
(-3386.737246 2.359361561e-11 7604.394147)
(-3474.145606 0 7528.43047)
(-3543.714683 0 7447.038312)
(-3598.411364 2.097043838e-11 7361.836172)
(-3642.125366 0 7273.60601)
(-3679.77335 0 7183.896463)
(-3715.313971 1.927129394e-11 7094.533333)
(-3753.182051 -1.884162828e-11 7006.843451)
(-3798.622861 0 6922.675853)
(-3857.279714 -3.626906667e-11 6844.129957)
(-3934.327562 -1.784476378e-11 6773.115729)
(-4035.420108 0 6711.93016)
(-4166.871881 0 6662.955556)
(-4334.976297 8.588113984e-12 6628.56238)
(-4546.96999 0 6611.709475)
(-4810.478947 0 6615.434114)
(-5133.076085 0 6642.627429)
(-5522.573542 1.664026987e-11 6696.742449)
(-5985.436978 0 6780.460393)
(-6526.211293 -1.648715847e-11 6895.521266)
(-7144.615036 0 7041.539297)
(-7830.229119 -8.197842814e-12 7213.775944)
(-8558.580384 0 7401.133613)
(-9287.135471 -1.635783928e-11 7583.856451)
(-9952.333244 0 7732.828955)
(-10478.01523 8.183684821e-12 7813.130542)
(-10792.98184 0 7792.041514)
(-10851.12451 -4.104840013e-12 7649.487811)
(-10646.20221 4.115006894e-12 7383.918096)
(-10212.05521 4.127479016e-12 7013.502674)
(-9608.406122 -4.14216564e-12 6568.377221)
(-8902.649037 -2.079492669e-12 6082.278107)
(-8155.534496 2.08893289e-12 5585.595819)
(-7412.996832 2.099371153e-12 5101.027712)
(-6707.790329 4.22155725e-12 4644.764349)
(-6065.941688 0 4230.080397)
(-5503.484644 -2.136401619e-12 3865.050456)
(-762.5560377 0 7812.42279)
(-80.81580152 3.177305647e-10 7754.449564)
(-520.5200081 0 7814.190034)
(-1357.853056 0 7802.580776)
(-1485.822122 1.150582611e-10 7776.190234)
(-1761.37779 0 7754.760782)
(-2038.692353 0 7728.159596)
(-2283.856337 0 7694.637072)
(-2503.728561 0 7654.742594)
(-2699.77486 0 7608.31297)
(-2871.287568 0 7555.139615)
(-3017.508639 0 7494.678466)
(-3140.094153 -2.586072461e-11 7427.536976)
(-3241.029904 0 7354.476374)
(-3321.90913 0 7275.526765)
(-3385.775312 0 7192.000252)
(-3436.233928 0 7104.690825)
(-3476.450726 0 7015.005738)
(-3510.672731 2.061904649e-11 6924.251947)
(-3544.066366 0 6834.168447)
(-3580.500108 3.931717922e-11 6746.071129)
(-3624.481864 0 6661.880352)
(-3681.27363 0 6583.476585)
(-3756.299814 0 6512.823087)
(-3855.175959 0 6452.097837)
(-3983.629299 -9.061181025e-12 6403.506342)
(-4147.771877 -8.960489232e-12 6369.383607)
(-4354.341189 0 6352.637641)
(-4610.010552 0 6355.875877)
(-4922.321947 8.734520484e-12 6382.149499)
(-5299.066034 0 6434.631436)
(-5746.296523 0 6515.747589)
(-6267.491353 0 6627.194282)
(-6861.818222 -8.573422501e-12 6768.395828)
(-7520.033688 -8.553296169e-12 6934.884816)
(-8218.757799 0 7116.104011)
(-8917.293578 0 7293.585656)
(-9556.584052 0 7439.813162)
(-10064.91168 0 7522.148276)
(-10375.26628 -4.274727285e-12 7509.639697)
(-10443.70795 -4.282823311e-12 7382.83654)
(-10262.76897 0 7139.360405)
(-9862.735765 4.306443938e-12 6795.340491)
(-9298.274839 0 6378.188291)
(-8632.768363 0 5919.696948)
(-7923.802146 0 5448.557999)
(-7215.507905 0 4986.649415)
(-6540.171403 2.20230067e-12 4550.025999)
(-5923.671794 -2.215187284e-12 4151.958487)
(-5381.537431 -2.229034665e-12 3800.283865)
(-741.1686493 0 7580.533114)
(-79.75668823 0 7523.278357)
(-499.1038215 1.023055964e-10 7580.901865)
(-1306.920419 -7.512753673e-11 7567.982596)
(-1429.653375 6.007882608e-11 7540.77236)
(-1692.993341 0 7517.379348)
(-1957.639408 0 7489.177938)
(-2190.952973 0 7453.971479)
(-2399.663041 0 7412.089607)
(-2584.957092 3.270077947e-11 7363.477144)
(-2745.898958 -3.041848781e-11 7307.98967)
(-2883.13008 2.855376785e-11 7245.661557)
(-2997.795432 2.700687387e-11 7177.269573)
(-3090.989283 0 7102.34183)
(-3165.516679 0 7022.373334)
(-3224.293292 0 6937.727898)
(-3270.089536 0 6849.886326)
(-3306.968948 2.214545088e-11 6759.771243)
(-3339.132875 0 6669.095008)
(-3370.157777 0 6579.219044)
(-3404.621038 2.052985985e-11 6491.581216)
(-3447.533115 0 6408.090378)
(-3503.517813 0 6330.503309)
(-3577.37862 0 6260.803737)
(-3674.30483 0 6200.934311)
(-3799.835501 -9.462773247e-12 6153.075117)
(-3960.125841 0 6119.584147)
(-4161.678747 0 6103.100146)
(-4410.852508 0 6106.138219)
(-4714.426166 0 6131.791834)
(-5079.090366 0 6182.737289)
(-5511.062331 9.019404784e-12 6261.518322)
(-6014.132817 0 6369.542136)
(-6586.570708 0 6506.292731)
(-7218.96007 -8.932378896e-12 6667.452214)
(-7890.015161 -8.918649746e-12 6843.057599)
(-8560.832185 0 7015.603902)
(-9175.869076 0 7159.447917)
(-9668.342292 0 7243.720677)
(-9974.740581 -4.464183558e-12 7239.377655)
(-10052.92731 0 7127.196335)
(-9894.611586 0 6904.398793)
(-9526.607511 0 6584.958915)
(-8999.205549 4.513308438e-12 6194.035768)
(-8371.862674 2.265817601e-12 5761.472132)
(-7699.044308 0 5314.333891)
(-7023.352124 0 4873.805909)
(-6376.533228 0 4455.772089)
(-5784.243133 0 4073.439244)
(-5261.434844 1.163912826e-12 3734.364201)
(-719.6837042 0 7332.355015)
(-78.35714982 0 7276.369044)
(-476.4739041 0 7331.434945)
(-1255.169286 0 7317.964922)
(-1372.296393 0 7291.00436)
(-1622.581374 0 7266.87178)
(-1875.10576 4.596497294e-11 7237.84306)
(-2096.552738 -4.09592104e-11 7202.016501)
(-2293.476532 0 7159.453735)
(-2467.799563 3.418294001e-11 7110.268007)
(-2618.988374 3.179720354e-11 7054.40783)
(-2747.176808 0 6992.016402)
(-2852.980672 2.823095842e-11 6922.897912)
(-2939.035819 -2.687282726e-11 6848.125509)
(-3007.26177 -2.572046586e-11 6768.153657)
(-3060.532041 0 6684.051749)
(-3102.531449 0 6596.719976)
(-3135.840152 0 6507.486536)
(-3165.23269 -2.250886067e-11 6417.823412)
(-3194.807867 0 6329.092557)
(-3228.128891 0 6242.883366)
(-3269.646334 0 6160.772893)
(-3324.331024 0 6084.662514)
(-3397.023079 0 6016.357021)
(-3492.599137 0 5957.775705)
(-3616.179785 0 5911.092767)
(-3773.272321 9.781752279e-12 5878.56138)
(-3969.89531 0 5862.560713)
(-4212.54892 -1.920948457e-11 5865.724114)
(-4507.915365 0 5890.822621)
(-4862.16176 0 5940.520165)
(-5280.234118 0 6017.123883)
(-5765.707657 9.389331514e-12 6121.996286)
(-6317.803121 9.359209277e-12 6254.620424)
(-6926.520986 0 6410.771075)
(-7571.428861 4.661443454e-12 6581.154158)
(-8216.721026 0 6749.193437)
(-8809.480203 -9.315216605e-12 6890.920911)
(-9287.169064 0 6977.018393)
(-9590.011959 4.66652235e-12 6980.216581)
(-9677.445792 4.675360378e-12 6881.648835)
(-9540.524877 4.686940323e-12 6678.127913)
(-9202.513977 4.701145955e-12 6381.507954)
(-8710.062877 0 6015.151772)
(-8118.849145 0 5606.892897)
(-7480.373203 0 5182.345416)
(-6835.797032 2.391156956e-12 4762.025393)
(-6216.279463 0 4361.62991)
(-5647.162115 0 3994.223928)
(-5142.792054 -1.216667089e-12 3667.067306)
(-697.7772543 0 7068.345101)
(-76.21708508 -1.814684234e-10 7013.45227)
(-453.7725992 0 7066.098702)
(-1203.582748 0 7053.522855)
(-1315.155675 0 7026.795192)
(-1552.224508 0 7003.458968)
(-1792.108355 0 6974.918137)
(-2001.889998 4.285867184e-11 6939.492223)
(-2187.624081 0 6897.606245)
(-2351.270518 0 6849.378505)
(-2492.223883 0 6794.33862)
(-2610.655396 0 6732.583675)
(-2708.470596 2.954015409e-11 6664.714958)
(-2787.134475 -5.623808049e-11 6591.293926)
(-2849.192359 0 6512.746945)
(-2897.317123 0 6430.346689)
(-2934.536852 0 6344.840556)
(-2965.029777 0 6257.517464)
(-2991.949723 0 6169.951411)
(-3019.15775 1.148383307e-11 6083.333785)
(-3050.98356 0 5999.235008)
(-3091.769505 -2.200666861e-11 5919.247177)
(-3145.707485 2.161286673e-11 5845.290657)
(-3217.042081 2.126751731e-11 5778.891647)
(-3310.874253 0 5722.111442)
(-3432.302581 -1.03503938e-11 5676.978127)
(-3586.511384 0 5645.627713)
(-3779.203021 0 5630.449735)
(-4016.08091 0 5633.94664)
(-4303.320208 0 5658.666361)
(-4647.261841 -9.91599634e-12 5707.308347)
(-5052.837499 0 5781.929946)
(-5522.379015 0 5883.913314)
(-6054.856563 0 6012.672267)
(-6641.735078 -4.885123886e-12 6164.196401)
(-7262.6753 0 6329.726433)
(-7883.993884 0 6493.637221)
(-8456.133674 4.873602414e-12 6633.195589)
(-8920.204608 0 6721.101881)
(-9219.804458 0 6731.159171)
(-9315.913018 0 6645.268582)
(-9198.966857 4.904294635e-12 6459.529288)
(-8889.21842 2.459579559e-12 6184.167446)
(-8429.810931 0 5840.814575)
(-7872.748266 2.478354267e-12 5455.323493)
(-7266.918389 0 5052.047831)
(-6652.110866 2.50204558e-12 4650.873753)
(-6058.802397 0 4267.238158)
(-5511.905521 0 3914.008742)
(-5025.181026 -1.273089373e-12 3598.150076)
(-675.4224297 0 6788.361828)
(-73.68851538 0 6735.011952)
(-432.1479319 0 6786.125665)
(-1152.891271 8.607589806e-11 6774.733427)
(-1259.091506 -6.883413373e-11 6749.179777)
(-1483.913785 0 6727.016114)
(-1710.993163 0 6700.160851)
(-1909.076279 -4.489341903e-11 6666.553417)
(-2083.745923 0 6626.525825)
(-2236.511902 0 6580.08788)
(-2367.143052 3.485138411e-11 6527.059716)
(-2476.782739 3.27149181e-11 6467.824621)
(-2566.293716 -3.094259488e-11 6402.517107)
(-2637.646375 0 6331.527548)
(-2693.348257 0 6255.896527)
(-2736.29066 0 6176.208312)
(-2769.253582 0 6093.663115)
(-2795.789538 0 6009.398882)
(-2820.25831 -1.233543942e-11 5924.820908)
(-2845.752715 0 5841.240447)
(-2875.73926 0 5760.035088)
(-2914.917319 0 5682.949566)
(-2967.671088 2.26389537e-11 5611.667408)
(-3037.987799 0 5547.745215)
(-3130.515882 1.09801921e-11 5493.276155)
(-3249.754131 -1.084178645e-11 5450.036888)
(-3400.772652 2.144261549e-11 5420.19406)
(-3589.209618 -2.123396814e-11 5406.104807)
(-3820.690837 -1.052729578e-11 5410.059333)
(-4100.90256 0 5434.692228)
(-4435.098779 -1.03867657e-11 5482.404002)
(-4828.257355 0 5555.308359)
(-5283.243971 1.029119437e-11 5654.633988)
(-5797.752757 5.129089408e-12 5779.770909)
(-6363.708814 0 5926.972996)
(-6962.561586 -5.109183818e-12 6087.923146)
(-7561.664211 0 6247.988615)
(-8114.706649 5.10498028e-12 6385.50931)
(-8566.252029 0 6475.042262)
(-8862.797911 -5.114750486e-12 6491.319161)
(-8967.125168 0 6417.160278)
(-8868.683 2.568564831e-12 6247.767484)
(-8585.49788 2.576349918e-12 5992.200398)
(-8157.302582 2.585517174e-12 5670.321011)
(-7632.587425 0 5306.174576)
(-7057.870886 -2.607801049e-12 4922.960145)
(-6471.575209 0 4539.946969)
(-5903.462767 -2.63507302e-12 4172.249167)
(-5377.960039 0 3832.529385)
(-4908.192054 0 3527.419211)
(-653.534295 5.832799794e-10 6493.5912)
(-72.26406634 0 6442.336742)
(-411.9805487 0 6492.238854)
(-1104.24571 0 6481.973425)
(-1204.97061 7.218153074e-11 6458.88507)
(-1418.018651 0 6438.466184)
(-1633.40213 0 6413.926325)
(-1819.974133 0 6383.000876)
(-1983.434136 0 6345.928549)
(-2125.821491 0 6302.649747)
(-2247.061394 -3.654620356e-11 6253.239377)
(-2347.450172 -3.430584115e-11 6197.550195)
(-2428.587451 0 6135.743792)
(-2492.764077 0 6068.801272)
(-2542.209636 0 5996.900987)
(-2579.516802 0 5921.294163)
(-2608.037005 0 5842.67147)
(-2631.243003 0 5762.489399)
(-2652.343839 0 5681.885205)
(-2675.179279 -1.261400745e-11 5602.110162)
(-2703.61751 0 5524.600427)
(-2741.529526 0 5451.170994)
(-2792.564953 2.37398837e-11 5383.139119)
(-2861.061305 -1.168027343e-11 5322.275267)
(-2951.660471 0 5270.503591)
(-3068.685655 1.136902141e-11 5229.51526)
(-3216.967806 0 5201.569526)
(-3401.231044 1.113328687e-11 5188.780572)
(-3626.923909 0 5193.465917)
(-3900.001881 0 5218.182867)
(-4225.478028 2.178374617e-11 5265.223074)
(-4607.094069 -5.418168829e-12 5336.572369)
(-5047.610424 0 5433.426333)
(-5545.57025 0 5555.186891)
(-6092.259655 0 5698.411726)
(-6670.295541 -5.357642879e-12 5855.099389)
(-7248.803972 0 6011.408275)
(-7784.032741 1.070646996e-11 6147.056304)
(-8223.882511 5.356623242e-12 6237.853172)
(-8517.618691 -5.363480282e-12 6259.850143)
(-8629.597092 0 6196.383913)
(-8548.402922 -2.693473883e-12 6042.009998)
(-8290.163121 5.403275105e-12 5804.853965)
(-7891.399079 0 5502.990235)
(-7397.376168 -2.722259947e-12 5158.869021)
(-6852.389968 0 4794.602237)
(-6293.48463 0 4428.849094)
(-5749.650244 -1.381608173e-12 4076.345319)
(-5244.813032 -1.389692553e-12 3749.541922)
(-4791.414363 -1.398379688e-12 3454.70957)
(-632.2829127 -6.123515639e-10 6185.220324)
(-71.56604859 2.092623209e-10 6136.135123)
(-393.2271987 1.290410247e-10 6184.302908)
(-1058.597386 -9.476054733e-11 6176.212156)
(-1154.705939 0 6155.666701)
(-1355.984696 0 6138.418156)
(-1560.043494 5.546309657e-11 6116.952288)
(-1736.050154 -4.942295179e-11 6089.550753)
(-1889.222862 -4.483691772e-11 6056.503888)
(-2021.632131 0 6017.608242)
(-2133.12776 -3.836772338e-11 5972.430466)
(-2224.549351 0 5921.199823)
(-2297.932161 0 5864.518658)
(-2354.737586 -1.621289117e-11 5802.279438)
(-2397.677311 0 5735.560166)
(-2429.72297 0 5664.887232)
(-2453.313854 -1.441031506e-11 5591.371963)
(-2472.472563 0 5516.164249)
(-2490.621401 0 5440.399587)
(-2510.565761 1.324270926e-11 5365.314005)
(-2536.36184 0 5292.343257)
(-2572.152752 0 5223.117786)
(-2621.46054 0 5158.953107)
(-2688.266239 0 5101.726038)
(-2776.429763 -1.208804146e-11 5053.050825)
(-2890.391456 -1.193567107e-11 5014.759554)
(-3035.200229 -1.18030368e-11 4989.041464)
(-3215.427635 0 4977.832972)
(-3435.839752 1.158944991e-11 4983.56006)
(-3701.605343 0 5008.534941)
(-4017.972624 5.717370488e-12 5055.076391)
(-4388.908861 0 5125.05536)
(-4815.973745 0 5219.683495)
(-5297.808438 0 5338.323567)
(-5826.502986 0 5477.694169)
(-6384.994772 0 5630.39849)
(-6944.337316 1.124066231e-11 5783.113801)
(-7463.077695 0 5916.96322)
(-7891.892893 -5.623605652e-12 6008.69766)
(-8182.968756 0 6035.878373)
(-8301.821719 0 5982.043048)
(-8236.799066 0 5841.526442)
(-8002.067824 0 5621.463392)
(-7631.000206 0 5338.214038)
(-7166.126614 0 5012.882078)
(-6649.630605 0 4666.553691)
(-6117.132857 0 4317.231806)
(-5596.779167 -1.450469676e-12 3979.245899)
(-5112.010662 2.917914009e-12 3664.832182)
(-4674.510697 0 3379.853228)
(-611.7188094 0 5863.212593)
(-71.17762736 0 5816.272499)
(-377.0005612 0 5863.267197)
(-1016.563281 -9.960424528e-11 5858.051956)
(-1108.989091 7.965263324e-11 5840.329803)
(-1299.921099 0 5826.511054)
(-1492.904328 0 5809.169242)
(-1658.981143 0 5786.312763)
(-1802.468563 2.356438137e-11 5758.033366)
(-1925.001418 0 5724.061751)
(-2027.362873 -2.016444741e-11 5684.326681)
(-2110.865987 0 5639.043601)
(-2176.110867 0 5588.000232)
(-2225.855416 0 5531.803752)
(-2262.514454 0 5471.128876)
(-2288.57332 0 5406.561338)
(-2307.672651 0 5339.026085)
(-2322.464212 0 5269.729065)
(-2336.484923 0 5199.678431)
(-2353.406457 1.39196121e-11 5130.086295)
(-2376.662461 0 5062.433559)
(-2409.638647 0 4998.069985)
(-2456.085364 0 4938.436304)
(-2520.252474 1.288923265e-11 4885.313258)
(-2605.818353 1.270592325e-11 4840.22842)
(-2716.812736 0 4805.135456)
(-2857.486769 -1.240635061e-11 4781.907284)
(-3032.653644 0 4772.633105)
(-3247.417087 6.09092313e-12 4779.618103)
(-3506.302526 -6.046741421e-12 4805.11842)
(-3813.628065 0 4851.329075)
(-4173.549498 0 4920.14394)
(-4587.891295 -5.954318652e-12 5012.676601)
(-5054.432422 5.935216385e-12 5128.43949)
(-5565.978281 5.92128336e-12 5264.214705)
(-6106.110476 5.912182199e-12 5413.064645)
(-6647.329378 0 5562.381044)
(-7150.531575 5.907318103e-12 5694.294129)
(-7569.004705 0 5786.758765)
(-7857.545294 5.918623923e-12 5818.527978)
(-7982.557759 0 5773.317191)
(-7932.548007 0 5645.553981)
(-7719.859075 0 5441.264096)
(-7374.971611 0 5175.362525)
(-6937.863831 0 4867.677035)
(-6448.699977 3.017663043e-12 4538.357271)
(-5941.69503 3.03274205e-12 4204.692836)
(-5444.119366 -1.524610637e-12 3880.623874)
(-4978.860948 1.533531775e-12 3578.130254)
(-4556.858115 0 3302.674308)
(-591.8560836 0 5527.874158)
(-72.41071045 2.314968366e-10 5483.534417)
(-364.1134503 -1.427518765e-10 5529.916029)
(-979.1207158 0 5527.270456)
(-1068.059264 0 5513.487943)
(-1250.093078 0 5503.316331)
(-1433.660744 9.203423265e-11 5490.569171)
(-1590.300834 0 5472.890391)
(-1724.479259 0 5450.179764)
(-1838.449836 2.281447836e-11 5422.258107)
(-1932.683556 0 5389.18675)
(-2007.660473 -1.992121687e-11 5350.256415)
(-2065.533566 -3.768397866e-11 5305.977037)
(-2108.435678 0 5256.853442)
(-2138.802011 0 5203.100049)
(-2159.189993 0 5145.535031)
(-2172.753982 -1.594143806e-11 5084.974747)
(-2183.319801 0 5022.429524)
(-2193.364137 0 4958.996687)
(-2206.167361 -1.464977197e-11 4895.702716)
(-2225.80058 0 4834.023279)
(-2255.686597 0 4775.220466)
(-2299.141992 0 4720.810376)
(-2359.815061 0 4672.331575)
(-2441.551655 0 4631.37255)
(-2548.574431 0 4599.832139)
(-2685.002544 1.305713173e-11 4579.515301)
(-2854.94303 -6.465039562e-12 4572.536909)
(-3063.075348 -6.410425439e-12 4581.010171)
(-3314.366912 0 4607.255265)
(-3612.881884 0 4653.353323)
(-3961.876125 0 4721.208244)
(-4363.421084 0 4811.881492)
(-4815.278587 -6.246551028e-12 4924.850861)
(-5310.239576 6.23188712e-12 5057.279574)
(-5832.932917 0 5202.3851)
(-6357.042121 0 5348.479413)
(-6845.403476 0 5478.292715)
(-7253.993272 0 5571.279047)
(-7539.777699 -3.114544096e-12 5606.93124)
(-7670.457137 -3.120442785e-12 5569.523639)
(-7634.470485 0 5453.46093)
(-7442.314996 6.275305355e-12 5263.664168)
(-7122.135089 0 5013.895096)
(-6711.594882 0 4722.83908)
(-6248.802724 -1.587977993e-12 4409.684323)
(-5766.496597 0 4090.96714)
(-5291.206577 3.209169636e-12 3780.303097)
(-4845.172513 3.227947859e-12 3489.352457)
(-4438.458635 0 3223.096628)
(-573.7676592 0 5179.874303)
(-75.43675907 -2.439671088e-10 5138.469269)
(-354.0233957 0 5183.814815)
(-947.1093332 0 5184.25864)
(-1033.979111 0 5174.607598)
(-1207.558978 0 5169.129367)
(-1382.818333 0 5161.396538)
(-1531.507135 0 5149.491109)
(-1657.703613 0 5133.183852)
(-1763.822939 -4.80868976e-11 5112.166818)
(-1849.868698 0 5085.92211)
(-1917.437449 0 5054.449024)
(-1968.45614 0 5018.078346)
(-2004.722741 0 4976.606195)
(-2028.788421 0 4930.840034)
(-2043.558066 0 4881.08381)
(-2052.047313 -1.680017156e-11 4828.384386)
(-2057.334556 0 4773.521065)
(-2062.832359 0 4717.432244)
(-2071.681101 0 4661.249166)
(-2087.167722 0 4606.312464)
(-2112.728374 0 4553.798851)
(-2152.089716 -1.452822627e-11 4505.198226)
(-2208.805692 0 4461.955801)
(-2286.342683 7.046382018e-12 4425.707559)
(-2388.380046 -1.391512417e-11 4398.141157)
(-2519.183119 6.880246627e-12 4381.163669)
(-2683.182444 0 4376.762236)
(-2884.510052 0 4387.084164)
(-3127.464377 0 4414.311511)
(-3416.414035 0 4460.543323)
(-3754.506899 -6.6315727e-12 4527.595206)
(-4143.084235 -6.604227539e-12 4616.585003)
(-4580.470255 0 4726.963582)
(-5059.381737 -6.567586469e-12 4856.177193)
(-5565.100044 0 4997.688597)
(-6072.667952 0 5140.502114)
(-6546.801313 6.5520969e-12 5268.164639)
(-6945.909584 -3.278121959e-12 5361.394763)
(-7228.564471 0 5400.225372)
(-7364.200575 3.28853482e-12 5369.824021)
(-7341.127127 0 5264.363988)
(-7168.162404 3.306671788e-12 5087.903442)
(-6871.359473 3.318437709e-12 4853.155046)
(-6486.206574 1.665956307e-12 4577.786338)
(-6048.820688 0 4279.970474)
(-5590.463372 0 3975.555856)
(-5136.856516 0 3677.796638)
(-4709.518353 -1.700915488e-12 3398.005664)
(-4317.81748 0 3140.796594)
(-557.2855372 0 4819.061856)
(-79.77786959 -2.574728064e-10 4780.411457)
(-347.6735457 7.938494284e-11 4824.827381)
(-920.9490364 0 4829.123075)
(-1007.173509 0 4823.548557)
(-1174.10133 0 4823.005509)
(-1342.022698 3.412042618e-11 4821.109376)
(-1483.953752 0 4815.619469)
(-1603.188489 0 4806.1988)
(-1702.030393 -2.537446247e-11 4792.510097)
(-1781.420923 0 4774.163948)
(-1842.581725 0 4751.214205)
(-1886.893864 0 4723.118058)
(-1916.934408 0 4690.470003)
(-1935.219 0 4653.329066)
(-1944.19203 0 4612.392477)
(-1947.402323 0 4568.31495)
(-1947.829372 3.436792112e-11 4521.952886)
(-1948.10042 -1.670863437e-11 4474.058943)
(-1951.951977 1.629360439e-11 4425.784152)
(-1962.930594 7.965164253e-12 4378.327234)
(-1983.975623 1.561185847e-11 4332.865901)
(-2018.342465 0 4290.721631)
(-2069.683858 1.508749357e-11 4253.352653)
(-2141.800319 1.487292092e-11 4222.323025)
(-2238.358119 7.342723532e-12 4199.291069)
(-2362.893542 0 4186.118943)
(-2519.554279 0 4184.695782)
(-2712.999676 -7.129731181e-12 4197.197351)
(-2947.197496 0 4225.727079)
(-3225.816943 0 4272.348763)
(-3552.335801 6.998687801e-12 4338.856804)
(-3927.756436 0 4426.280305)
(-4350.335731 0 4534.308196)
(-4813.338272 0 4660.372292)
(-5302.437473 0 4798.505)
(-5793.730219 -3.457579991e-12 4937.94921)
(-6253.906715 3.457406193e-12 5063.451633)
(-6643.440464 -6.91918893e-12 5156.488507)
(-6922.759828 0 5197.97921)
(-7062.705504 -3.470583791e-12 5173.825791)
(-7051.318645 0 5077.896192)
(-6896.20518 -3.489724777e-12 4913.652703)
(-6621.60746 0 4692.92441)
(-6260.847784 -1.758181445e-12 4432.362196)
(-5848.054255 -1.766163e-12 4149.125377)
(-5413.244995 0 3858.490846)
(-4981.315377 0 3573.32134)
(-4572.998817 0 3304.517419)
(-4196.531356 0 3056.058045)
(-542.4293099 -3.98161361e-10 4444.2727)
(-85.85433416 4.081977186e-10 4408.712148)
(-345.6892604 0 4452.633175)
(-901.5644797 -6.161491325e-11 4460.684845)
(-987.8937203 9.854580142e-11 4459.921468)
(-1150.254739 0 4464.484614)
(-1312.729705 3.606304501e-11 4468.778172)
(-1448.934343 0 4470.181789)
(-1562.440167 0 4468.316126)
(-1655.739178 0 4462.862759)
(-1729.475848 0 4453.307869)
(-1784.537883 2.341801684e-11 4439.097285)
(-1823.24326 0 4420.374812)
(-1847.639709 0 4397.140528)
(-1860.192485 2.017967725e-11 4369.638606)
(-1864.050025 0 4338.238477)
(-1861.837575 -1.873966198e-11 4303.699039)
(-1856.812608 -1.816231543e-11 4266.633709)
(-1852.133596 0 4227.771203)
(-1850.817454 0 4188.254896)
(-1856.167592 0 4149.054417)
(-1871.606886 0 4111.340267)
(-1900.521325 -1.620543258e-11 4076.369828)
(-1946.043941 0 4045.591839)
(-2011.492805 -7.859849286e-12 4020.368326)
(-2100.94778 0 4002.455746)
(-2218.258374 0 3993.566762)
(-2366.967089 7.59985742e-12 3995.6171)
(-2551.233769 0 4010.66322)
(-2775.440647 0 4040.814074)
(-3043.079109 7.435062303e-12 4088.061047)
(-3357.038445 0 4154.236541)
(-3718.743728 0 4240.279945)
(-4126.17184 0 4346.075064)
(-4572.904223 7.325779317e-12 4469.106989)
(-5045.228898 3.657259732e-12 4603.816666)
(-5520.287935 -3.654434506e-12 4739.883998)
(-5966.593077 0 4863.091806)
(-6346.06756 3.656563707e-12 4955.428911)
(-6621.445033 0 4999.047544)
(-6764.748879 0 4980.297638)
(-6763.774561 0 4892.90235)
(-6625.175102 0 4739.848577)
(-6371.512811 -3.701533638e-12 4532.211213)
(-6034.01578 3.716564193e-12 4285.577282)
(-5644.861622 1.866718064e-12 4016.190753)
(-5232.737704 -1.876045923e-12 3738.725777)
(-4821.538564 1.886239922e-12 3465.598952)
(-4431.142001 -1.897277117e-12 3207.319078)
(-4069.467112 1.909137215e-12 2967.735213)
(-530.2736623 0 4054.596834)
(-94.48761782 1.440396378e-10 4022.43586)
(-347.9352397 0 4065.799547)
(-889.7098515 -6.522566922e-11 4077.773832)
(-977.8176841 0 4082.158689)
(-1136.843026 0 4092.544236)
(-1295.628253 0 4103.350011)
(-1428.083074 3.401885275e-11 4112.190451)
(-1537.583518 0 4118.57725)
(-1626.453021 0 4121.902173)
(-1695.281102 0 4121.433302)
(-1745.802127 0 4116.998438)
(-1779.673357 0 4108.347717)
(-1799.23815 0 4095.350687)
(-1806.81128 -2.136224633e-11 4078.246069)
(-1805.365688 0 4057.341158)
(-1798.407781 0 4033.143923)
(-1788.03225 0 4006.241833)
(-1777.619853 0 3977.320262)
(-1770.857489 1.82304682e-11 3947.352987)
(-1770.572919 8.912004179e-12 3917.288457)
(-1779.698694 0 3888.134913)
(-1801.833239 0 3861.156891)
(-1840.419014 0 3837.658222)
(-1898.689926 8.320451984e-12 3819.016619)
(-1980.08415 0 3806.877587)
(-2088.403749 8.124277419e-12 3802.868078)
(-2227.798408 0 3808.923006)
(-2401.977216 0 3827.017567)
(-2614.764455 -7.919396484e-12 3859.200664)
(-2870.136257 0 3907.470624)
(-3170.593855 0 3973.569697)
(-3517.375483 -7.798350771e-12 4058.556953)
(-3908.879437 0 4162.255615)
(-4338.765882 -7.755084476e-12 4282.529733)
(-4793.778841 0 4413.813728)
(-5252.248771 0 4546.631374)
(-5684.180992 -3.868397123e-12 4667.304336)
(-6053.272915 0 4758.708381)
(-6324.125549 0 4804.006542)
(-6469.640911 0 4789.832265)
(-6477.769916 0 4710.004303)
(-6354.452916 3.904557483e-12 4567.20427)
(-6120.59762 -1.959225433e-12 4371.738823)
(-5805.409343 1.9671811e-12 4138.187191)
(-5439.494457 0 3882.0682)
(-5050.369139 0 3617.502747)
(-4661.111904 -1.99677731e-12 3356.496203)
(-4290.678419 0 3109.034964)
(-3945.024532 0 2877.85218)
(-520.8311783 0 3648.134982)
(-105.1767302 0 3619.307669)
(-354.8227556 0 3661.885379)
(-885.9045833 -6.916336905e-11 3678.492956)
(-977.7338284 0 3688.050089)
(-1135.533072 -4.652922477e-11 3704.642206)
(-1292.29088 -4.048113614e-11 3722.639527)
(-1422.780445 0 3739.495913)
(-1529.787343 0 3754.579775)
(-1615.60974 0 3767.229605)
(-1681.505884 0 3776.874165)
(-1728.602429 0 3783.021107)
(-1758.711343 0 3785.107071)
(-1774.222708 0 3783.323221)
(-1777.726636 0 3777.405987)
(-1771.839819 0 3767.866928)
(-1759.714901 -1.051773091e-11 3754.961109)
(-1744.52354 -2.038738453e-11 3739.114202)
(-1728.815508 1.98234481e-11 3721.081623)
(-1715.941069 0 3701.591907)
(-1709.24516 9.450025469e-12 3681.543756)
(-1711.836428 0 3661.843975)
(-1726.847491 0 3643.754994)
(-1757.354847 0 3628.333571)
(-1806.983341 0 3617.035344)
(-1879.391931 0 3611.346848)
(-1977.875536 8.614743251e-12 3612.90359)
(-2106.315231 0 3623.51102)
(-2268.896567 0 3645.141544)
(-2469.155063 0 3679.75495)
(-2710.650517 0 3729.36736)
(-2996.382129 0 3795.646428)
(-3327.125832 0 3879.738726)
(-3701.456595 -4.12130586e-12 3981.449315)
(-4113.393013 -4.111631007e-12 4098.895123)
(-4550.203674 -8.210622791e-12 4226.730361)
(-4991.345176 0 4356.17987)
(-5407.771827 -4.101933832e-12 4473.902159)
(-5765.379703 0 4563.992005)
(-6030.386619 0 4610.298649)
(-6176.509015 0 4599.869257)
(-6192.103378 2.063883194e-12 4526.730434)
(-6082.423841 -6.21041577e-12 4393.311345)
(-5866.752375 4.155009344e-12 4209.094905)
(-5572.381343 -4.171881206e-12 3987.791424)
(-5228.140204 0 3744.121412)
(-4859.995568 0 3491.532923)
(-4489.731155 0 3241.496896)
(-4135.381775 0 3003.664497)
(-3804.054194 -2.143026009e-12 2781.534566)
(-514.4241809 -4.747617008e-10 3220.85232)
(-117.8726248 0 3195.500149)
(-367.0211534 0 3237.65255)
(-891.2675475 0 3259.166593)
(-988.1961275 -5.875227593e-11 3274.47035)
(-1147.34592 0 3297.563489)
(-1304.339758 4.300103993e-11 3323.232283)
(-1434.603912 0 3348.717358)
(-1541.048993 -3.476246749e-11 3373.296522)
(-1626.060336 0 3396.263343)
(-1690.428866 0 3416.847946)
(-1735.357265 2.792329613e-11 3434.187534)
(-1763.111808 0 3448.196242)
(-1775.779524 0 3458.356959)
(-1775.803439 0 3464.791048)
(-1766.421079 0 3467.512538)
(-1750.098848 0 3466.937011)
(-1729.779701 0 3463.266087)
(-1708.867318 0 3457.101326)
(-1690.339714 0 3449.196237)
(-1676.930889 0 3440.212541)
(-1672.031023 0 3431.072021)
(-1679.088481 1.932311748e-11 3422.842041)
(-1701.05588 9.507177775e-12 3416.568208)
(-1741.108348 0 3413.592449)
(-1802.83754 -9.253833687e-12 3415.305819)
(-1890.068797 0 3423.294524)
(-2006.331626 0 3439.312138)
(-2155.445607 0 3465.242596)
(-2341.417594 0 3503.013336)
(-2567.440627 -4.432729027e-12 3554.559575)
(-2836.440174 4.410127431e-12 3621.615746)
(-3149.516391 0 3705.216292)
(-3505.172934 0 3805.444939)
(-3897.697418 4.367575258e-12 3920.313816)
(-4315.087987 0 4045.06822)
(-4737.664355 4.357493519e-12 4171.186046)
(-5137.799699 0 4286.096335)
(-5483.090437 0 4374.80787)
(-5740.986479 0 4421.671587)
(-5886.344522 0 4414.326251)
(-5907.961814 2.192357534e-12 4347.103981)
(-5810.440385 4.398004628e-12 4222.122837)
(-5611.630668 -2.206826919e-12 4048.195191)
(-5337.424818 -2.215788004e-12 3838.405542)
(-5015.390826 2.225846941e-12 3606.888202)
(-4670.652579 2.23696933e-12 3366.674839)
(-4324.449003 -2.249124504e-12 3128.905221)
(-3993.683654 0 2902.504255)
(-3680.817886 1.138213446e-12 2688.316694)
(-511.6921747 -5.052641396e-10 2767.367195)
(-133.5581561 0 2745.856388)
(-384.9569077 0 2787.803472)
(-906.8994267 0 2814.443054)
(-1010.91213 6.252698588e-11 2836.149143)
(-1173.469706 0 2866.460451)
(-1333.252582 0 2900.443565)
(-1465.916634 -4.077991579e-11 2935.394618)
(-1574.059381 0 2970.425107)
(-1659.973228 0 3004.533159)
(-1724.482247 0 3036.800077)
(-1769.305505 0 3066.64922)
(-1796.11004 0 3093.474648)
(-1807.217325 0 3116.850983)
(-1805.230097 0 3136.674715)
(-1792.873473 0 3152.98295)
(-1773.24909 0 3165.813773)
(-1748.826059 0 3175.506843)
(-1722.761656 0 3182.468054)
(-1698.399255 0 3187.284728)
(-1678.617962 0 3190.535269)
(-1666.353287 0 3193.120636)
(-1664.736334 0 3195.855108)
(-1677.186505 0 3199.789574)
(-1707.084654 -9.974096834e-12 3206.128671)
(-1757.466171 9.848372968e-12 3216.200747)
(-1831.987124 4.869466839e-12 3231.469524)
(-1934.711772 -4.822084439e-12 3253.637528)
(-2069.127696 0 3284.495753)
(-2238.975601 0 3325.935386)
(-2447.937324 4.717522492e-12 3379.811351)
(-2698.49814 -4.693468807e-12 3447.887665)