/*--------------------------------*- C++ -*----------------------------------*\
  =========                 |
  \\      /  F ield         | OpenFOAM: The Open Source CFD Toolbox
   \\    /   O peration     | Website:  https://openfoam.org
    \\  /    A nd           | Version:  7
     \\/     M anipulation  |
\*---------------------------------------------------------------------------*/
FoamFile
{
    version     2.0;
    format      ascii;
    class       volScalarField;
    location    "0.0021";
    object      p;
}
// * * * * * * * * * * * * * * * * * * * * * * * * * * * * * * * * * * * * * //

dimensions      [1 -1 -2 0 0 0 0];

internalField   nonuniform List<scalar> 
1167
(
1215091.765
1225657.102
1224022.663
1224539.548
1225965.458
1227604.98
1229471.941
1231574.466
1233884.935
1236376.795
1239026.901
1241813.509
1244716.204
1247715.988
1250795.684
1253940.018
1257135.422
1260370.098
1206320.966
1216938.584
1215344.449
1215880.529
1217346.484
1219036.564
1220958.457
1223120.248
1225493.267
1228049.602
1230765.085
1233617.132
1236584.282
1239647.111
1242788.136
1245991.549
1249243.77
1252532.855
1255848.77
1259183.422
1262530.06
1265883.356
1269239.316
1272595.056
1275948.65
1279298.91
1282645.237
1285987.553
1289326.079
1292661.098
1295992.886
1299321.295
1302645.304
1305962.476
1309268.227
1312554.8
1315810.214
1319017.824
1322156.742
1325203.787
1328137.039
1330939.367
1333601.212
1336121.157
1338503.786
1340755.215
1342885.085
1344937.413
1347011.181
1348983.891
1197202.039
1207878.433
1206325.197
1206882.676
1208391.346
1210135.386
1212116.384
1214341.618
1216781.624
1219407.187
1222192.928
1225115.063
1228151.65
1231282.634
1234489.841
1237757.324
1241071.095
1244419.27
1247791.794
1251180.463
1254578.65
1257981.239
1261384.345
1264785.211
1268182.054
1271573.859
1274960.201
1278341.215
1281717.266
1285088.825
1288456.271
1291819.571
1295177.939
1298529.125
1301868.649
1305188.964
1308478.495
1311720.919
1314895.863
1317980.637
1320953.644
1323797.832
1326503.451
1329068.66
1331497.561
1333795.743
1335972.541
1338072.708
1340196.752
1342216.768
1187712.504
1198454.437
1196942.624
1197523.36
1199077.84
1200879.104
1202923.107
1205216.304
1207728.021
1210427.646
1213288.559
1216286.088
1219397.505
1222601.785
1225880.509
1229217.18
1232597.746
1236010.012
1239443.997
1242891.55
1246346.03
1249802.374
1253256.881
1256707.01
1260151.102
1263588.295
1267018.327
1270441.444
1273858.166
1277269.22
1280675.145
1284076.053
1287471.204
1290858.594
1294234.003
1297590.047
1300915.48
1304194.47
1307407.058
1310531.104
1313545.296
1316432.7
1319183.355
1321794.999
1324271.24
1326617.133
1328841.701
1330990.436
1333165.408
1335233.366
1177828.058
1188642.229
1187172.051
1187778.314
1189381.661
1191243.931
1193354.92
1195720.493
1198308.736
1201087.553
1204029.053
1207107.528
1210299.063
1213582.281
1216938.004
1220349.523
1223802.282
1227284.137
1230784.928
1234296.437
1237812.23
1241327.288
1244838.008
1248341.916
1251837.52
1255324.167
1258801.797
1262270.78
1265731.79
1269185.633
1272633.036
1276074.348
1279509.007
1282935.064
1286348.553
1289742.425
1293105.673
1296422.987
1299674.859
1302839.654
1305896.369
1308828.186
1311624.935
1314283.968
1316808.398
1319202.73
1321475.673
1323673.466
1325899.769
1328016.077
1167522.505
1178415.266
1176987.288
1177621.569
1179276.596
1181203.771
1183386.137
1185828.682
1188498.457
1191361.839
1194389.418
1197554.306
1200831.874
1204199.899
1207638.574
1211130.801
1214661.735
1218218.893
1221792.224
1225373.428
1228955.972
1232534.95
1236106.973
1239669.653
1243221.618
1246762.311
1250291.81
1253810.674
1257319.785
1260820.09
1264312.437
1267797.251
1271274.259
1274741.72
1278195.745
1281629.646
1285032.784
1288390.212
1291683
1294889.954
1297990.444
1300967.731
1303811.446
1306518.598
1309091.815
1311535.058
1313856.728
1316103.804
1318381.549
1320546.318
1156768.391
1167746.181
1166361.175
1167025.571
1168735.384
1170730.963
1172989.053
1175513.445
1178269.916
1181223.201
1184342.547
1187599.963
1190969.725
1194428.724
1197956.682
1201535.861
1205151.2
1208790.032
1212442.003
1216098.878
1219754.158
1223402.978
1227041.92
1230668.73
1234282.238
1237881.993
1241468.206
1245041.565
1248603.022
1252153.744
1255694.783
1259226.712
1262749.294
1266261.08
1269758.418
1273234.791
1276680.021
1280079.523
1283414.926
1286665.469
1289810.917
1292834.619
1295726.043
1298481.868
1301104.254
1303596.642
1305967.142
1308263.464
1310592.477
1312805.556
1145537.914
1156606.965
1155265.52
1155962.062
1157729.863
1159797.524
1162135.45
1164746.371
1167594.691
1170643.449
1173860.516
1177216.524
1180684.669
1184241.175
1187864.888
1191537.73
1195244.095
1198971.19
1202708.529
1206447.636
1210181.977
1213906.879
1217618.926
1221315.933
1224996.774
1228661.079
1232309.243
1235942.115
1239560.789
1243166.493
1246760.401
1250343.336
1253915.222
1257474.655
1261018.332
1264539.966
1268029.697
1271473.422
1274853.231
1278148.855
1281340.414
1284411.358
1287351.07
1290155.919
1292827.619
1295369.117
1297788.256
1300133.476
1302513.251
1304774.158
1133803.54
1144969.286
1143671.716
1144402.659
1146231.117
1148374.717
1150796.611
1153498.593
1156443.829
1159593.592
1162914.006
1166374.559
1169947.565
1173608.037
1177334.352
1181107.638
1184912.081
1188734.462
1192564.066
1196392.414
1200212.887
1204020.688
1207812.43
1211586.093
1215340.608
1219075.692
1222791.777
1226489.759
1230170.964
1233836.773
1237488.427
1241126.797
1244752.1
1248363.08
1251956.548
1255526.586
1259063.584
1262553.934
1265980.148
1269322.48
1272561.381
1275680.426
1278668.954
1281523.062
1284244.062
1286834.446
1289301.814
1291695.319
1294125.034
1296432.978
1121538.735
1132805.87
1131552.873
1132320.099
1134211.602
1136434.053
1138943.786
1141741.151
1144787.942
1148043.662
1151473.015
1155044.18
1158728.138
1162499.147
1166334.744
1170215.531
1174125.07
1178049.997
1181979.277
1185904.143
1189818.025
1193716.07
1197594.854
1201452.298
1205287.36
1209099.929
1212890.498
1216660.023
1220409.823
1224141.427
1227856.265
1231555.281
1235238.728
1238905.641
1242552.943
1246174.976
1249762.457
1253302.158
1256777.042
1260167.844
1263455.345
1266623.319
1269661.068
1272564.459
1275334.451
1277973.155
1280487.955
1282928.715
1285407.091
1287760.803
1108720.085
1120092.577
1118884.637
1119689.337
1121646.092
1123949.79
1126550.282
1129446.549
1132598.866
1135965.07
1139508.426
1143195.403
1146996.035
1150883.703
1154835.026
1158830.014
1162851.792
1166886.426
1170922.783
1174951.858
1178966.83
1182962.729
1186936.198
1190885.118
1194808.409
1198705.913
1202578.148
1206426.227
1210251.511
1214055.514
1217839.72
1221605.285
1225352.502
1229080.479
1232786.406
1236464.744
1240106.576
1243698.965
1247225.361
1250666.909
1254004.713
1257222.792
1260310.443
1263263.35
1266082.187
1268768.739
1271330.201
1273817.121
1276342.704
1278740.76
1095329.363
1106809.71
1105646.587
1106489.584
1108512.632
1110899.493
1113592.707
1116590.232
1119851.031
1123331.157
1126992.059
1130799.181
1134721.43
1138730.985
1142803.831
1146919.163
1151059.721
1155211.167
1159361.818
1163502.522
1167626.37
1171728.18
1175804.402
1179852.828
1183872.411
1187862.957
1191824.949
1195759.385
1199667.72
1203551.547
1207412.308
1211251.162
1215068.571
1218863.614
1222633.667
1226373.338
1230073.944
1233722.825
1237303.863
1240798.56
1244188.385
1247457.579
1250595.472
1253597.636
1256464.558
1259197.756
1261804.299
1264335.451
1266905.952
1269345.972
1081355.73
1092944.18
1091825.575
1092706.987
1094795.993
1097266.013
1100052.618
1103152.264
1106522.663
1110118.205
1113898.921
1117829.08
1121876.131
1126011.569
1130210.341
1134451.187
1138716.138
1142990.476
1147262.182
1151521.727
1155761.896
1159977.419
1164164.586
1168321.021
1172445.463
1176537.622
1180598.016
1184627.575
1188627.598
1192599.654
1196545.26
1200465.486
1204360.783
1208230.339
1212071.493
1215879.061
1219644.447
1223355.302
1226995.793
1230547.736
1233992.966
1237315.924
1240506
1243558.709
1246474.425
1249254.453
1251905.744
1254480.188
1257093.964
1259574.334
1066798.885
1078493.577
1077418.704
1078337.117
1080490.519
1083041.778
1085919.994
1089120.221
1092598.974
1096309.225
1100209.599
1104262.87
1108435.743
1112698.663
1117025.91
1121395.385
1125788.783
1130190.782
1134588.892
1138973.432
1143336.833
1147673.452
1151979.339
1156252.037
1160490.083
1164692.957
1168860.897
1172994.803
1177095.885
1181165.483
1185204.976
1189215.443
1193197.123
1197149.218
1201068.995
1204951.289
1208787.528
1212565.56
1216269.72
1219882.124
1223384.89
1226762.659
1230004.919
1233107.244
1236069.962
1238894.27
1241587.168
1244201.343
1246854.421
1249370.682
1051673.601
1063469.563
1062436.559
1063388.987
1065602.803
1068231.171
1071196.313
1074492.417
1078075.083
1081895.81
1085911.862
1090085.191
1094381.497
1098770.373
1103225.417
1107724
1112247.1
1116779.135
1121307.172
1125821.009
1130312.882
1134776.873
1139208.707
1143605.535
1147965.687
1152288.488
1156573.891
1160822.452
1165035.216
1169213.398
1173358.084
1177470.18
1181549.838
1185595.998
1189605.909
1193574.225
1197492.395
1201348.244
1205126.16
1208808.46
1212377.402
1215817.735
1219119.034
1222276.932
1225291.729
1228164.517
1230902.227
1233557.95
1236250.56
1238803.162
1036014.163
1047901.872
1046907.788
1047889.514
1050156.682
1052854.362
1055898.234
1059281.483
1062959.056
1066881.389
1071004.896
1075290.604
1079703.321
1084212.16
1088789.977
1093413.84
1098064.244
1102724.96
1107382.951
1112027.629
1116650.735
1121245.968
1125808.86
1130336.157
1134825.776
1139276.578
1143688.263
1148061.016
1152395.394
1156692.24
1160952.352
1165176.125
1169363.444
1173512.86
1177621.298
1181683.084
1185689.48
1189628.079
1193483.229
1197237.271
1200872.532
1204373.868
1207731.021
1210939.748
1214000.444
1216914.328
1219688.719
1222377.833
1225101.867
1227680.842
1019878.828
1031843.875
1030884.847
1031888.472
1034198.74
1036953.594
1040062.978
1043519.335
1047277.31
1051286.736
1055503.322
1059887.333
1064403.411
1069019.988
1073709.796
1078449.326
1083219.021
1088002.292
1092785.599
1097558.259
1102311.737
1107039.367
1111736.195
1116398.671
1121024.421
1125611.877
1130160.191
1134669.207
1139139.116
1143570.218
1147962.904
1152317.198
1156632.418
1160906.795
1165136.709
1169316.104
1173435.731
1177482.733
1181441.123
1185292.875
1189020.012
1192607.225
1196044.149
1199326.455
1202454.47
1205429.287
1208257.882
1210994.118
1213759.18
1216375.596
1003356.317
1015378.323
1014448.883
1015463.864
1017802.673
1020597.72
1023753.554
1027262.583
1031079.636
1035154.138
1039441.509
1043902.133
1048500.353
1053204.572
1057987.357
1062825.277
1067698.371
1072590.15
1077486.914
1082377.59
1087253.361
1092107.411
1096934.332
1101730.002
1106491.454
1111216.677
1115904.169
1120552.923
1125162.432
1129732.276
1134261.891
1138750.576
1143196.751
1147597.825
1151949.334
1156244.472
1160473.168
1164621.94
1168674.216
1172611.504
1176415.541
1180070.93
1183567.308
1186900.448
1190070.905
1193080.245
1195936.64
1198696.253
1201481.315
1204107.597
986571.1087
998622.0263
997714.6952
998727.4116
1001074.957
1003887.218
1007063.898
1010597.623
1014443.96
1018552.735
1022879.807
1027385.832
1032035.392
1036797.434
1041644.688
1046554.132
1051506.116
1056484.097
1061474.755
1066467.156
1071452.402
1076423.519
1081375.155
1086303.036
1091203.84
1096075.104
1100915.065
1105722.263
1110495.49
1115233.8
1119935.99
1124600.506
1129225.066
1133806.096
1138338.219
1142813.452
1147220.489
1151544.557
1155767.633
1159869.767
1163831.408
1167636
1171272.23
1174735.149
1178024.725
1181141.729
1184092.558
1186930.574
1189778.965
1192465.477
969687.6279
981730.516
980836.6197
981829.767
984160.9544
986960.5038
990124.4658
993646.0944
997482.3374
1001584.221
1005908.437
1010416.294
1015073.584
1019849.783
1024718.61
1029657.417
1034647.318
1039672.188
1044718.811
1049776.617
1054836.856
1059892.373
1064937.472
1069967.592
1074978.919
1079968.155
1084932.577
1089869.805
1094777.424
1099653.078
1104494.317
1109298.022
1114060.449
1118776.471
1123439.257
1128039.278
1132563.824
1136996.712
1141318.592
1145508.385
1149545.646
1153413.156
1157099.242
1160598.921
1163912.518
1167042.038
1169997.391
1172838.053
1175687.204
1178349.711
952914.3055
964902.051
964011.2998
964963.6939
967248.2299
969998.7173
973108.771
976573.1806
980351.0381
984395.1051
988663.575
993119.764
997731.0545
1002468.417
1007307.156
1012226.046
1017207.422
1022236.714
1027301.806
1032393.173
1037503.244
1042625.933
1047756.293
1052890.49
1058025.375
1063158.186
1068286.368
1073407.626
1078519.561
1083619.387
1088704.034
1093769.587
1098811.099
1103822.032
1108793.673
1113714.235
1118568.343
1123336.61
1127996.071
1132521.835
1136889.559
1141078.344
1145073.262
1148866.526
1152455.826
1155839.575
1159020.693
1162048.414
1165048.346
1167863.753
936489.3533
948366.791
947467.672
948354.5143
950555.391
953212.4724
956217.5165
959567.3609
963223.8864
967142.1366
971282.6637
975611.0883
980096.4176
984711.6603
989433.6363
994242.8431
999122.7736
1004060.014
1009043.621
1014064.787
1019116.601
1024193.457
1029290.709
1034404.521
1039531.555
1044668.62
1049812.485
1054959.918
1060107.324
1065250.549
1070384.903
1075504.788
1080603.385
1085672.308
1090700.893
1095675.422
1100578.532
1105388.768
1110081.023
1114628.273
1119004.167
1123186.142
1127158.171
1130912.144
1134446.604
1137763.688
1140877.124
1143854.319
1146817.632
1149533.352
920734.9912
932425.4165
931504.8167
932300.9162
934380.5144
936899.6535
939749.8871
942930.4963
946407.2185
950138.7784
954089.3317
958227.6279
962526.0278
966960.9834
971512.4501
976164.094
980902.6335
985717.7948
990601.8014
995549.1018
1000555.956
1005619.919
1010739.549
1015914.171
1021143.433
1026426.946
1031764.217
1037154.316
1042595.524
1048085.223
1053619.562
1059193.099
1064798.445
1070425.68
1076061.635
1081688.985
1087285.456
1092823.34
1098269.94
1103589.448
1108746.043
1113707.639
1118449.172
1122954.044
1127211.826
1131211.507
1134942.326
1138438.15
1141828.336
1144989.147
917265.716
916314.0737
916985.9034
918891.3747
921205.6866
923821.7337
926741.0356
929932.9698
933359.6691
936988.1213
940789.6189
944738.9801
948814.7348
952998.7904
957276.3411
961635.6926
966067.7489
970565.8235
975125.5414
979744.008
984419.5312
989151.6269
993940.3598
998786.0104
1003688.943
1008649.426
1013667.102
1018740.902
1023868.953
1029047.957
1034273.185
1039537.869
1044832.729
1050145.077
1055457.873
1060748.5
1065988.108
1071141.771
1076170.204
1081033.241
1085694.216
1090124.137
1094304.256
1098225.853
1101889.655
1105320.472
1108613.596
1111898.691
1114816.118
)
;

boundaryField
{
    front_top
    {
        type            wedge;
    }
    front_middle
    {
        type            wedge;
    }
    front_bottom
    {
        type            wedge;
    }
    back_top
    {
        type            wedge;
    }
    back_middle
    {
        type            wedge;
    }
    back_bottom
    {
        type            wedge;
    }
    axis_top
    {
        type            symmetryPlane;
    }
    axis_middle
    {
        type            symmetryPlane;
    }
    axis_bottom
    {
        type            symmetryPlane;
    }
    wall_top
    {
        type            fixedFluxPressure;
        gradient        nonuniform 0();
        value           nonuniform 0();
    }
    wall_middle
    {
        type            fixedFluxPressure;
        gradient        uniform 0;
        value           nonuniform List<scalar> 
23
(
1348983.891
1342216.768
1335233.366
1328016.077
1320546.318
1312805.556
1304774.158
1296432.978
1287760.803
1278740.76
1269345.972
1259574.334
1249370.682
1238803.162
1227680.842
1216375.596
1204107.597
1192465.477
1178349.711
1167863.753
1149533.352
1144989.147
1114816.118
)
;
    }
    wall_bottom
    {
        type            fixedFluxPressure;
        gradient        nonuniform 0();
        value           nonuniform 0();
    }
    inlet
    {
        type            zeroGradient;
    }
    outlet
    {
        type            fixedValue;
        value           nonuniform 0();
    }
    procBoundary3to2
    {
        type            processor;
        value           nonuniform List<scalar> 
51
(
905824.576
905824.576
903485.0204
902488.8642
903023.8314
904737.5847
906830.5211
909198.7672
911848.2534
914754.1944
917884.385
921211.4115
924712.1629
928367.03
932159.8847
936078.0774
940112.0413
944255.5908
948504.8116
952858.7218
957318.454
961886.6976
966567.8521
971367.4943
976291.7035
981347.1691
986540.7557
991878.9472
997367.7114
1003012.17
1008816.073
1014781.463
1020908.186
1027193.128
1033629.52
1040205.733
1046903.871
1053698.053
1060552.87
1067422.993
1074254.625
1080989.737
1087572.29
1093954.52
1100100.368
1105981.336
1111560.942
1116782.379
1121618.557
1126180.555
1130380.347
)
;
    }
    procBoundary3to4
    {
        type            processor;
        value           nonuniform List<scalar> 
51
(
1223535.278
1234054.608
1232380.031
1232880.08
1234268.6
1235861.23
1237676.921
1239724.136
1241976.368
1244408.282
1246997.759
1249723.798
1252566.663
1255508.126
1258531.262
1261621.106
1264764.2
1267948.988
1263634.131
1263634.131
1266919.194
1270218.514
1273526.716
1276839.621
1280154.167
1283468.197
1286780.377
1290089.973
1293396.713
1296700.688
1300002.033
1303300.817
1306596.725
1309888.581
1313173.886
1316447.889
1319702.544
1322925.627
1326100.166
1329204.721
1332215.696
1335110.779
1337872.792
1340492.329
1342968.379
1345306.022
1347511.895
1349595.919
1351601.381
1353625.771
1355552.042
)
;
    }
}


// ************************************************************************* //
