/*--------------------------------*- C++ -*----------------------------------*\
  =========                 |
  \\      /  F ield         | OpenFOAM: The Open Source CFD Toolbox
   \\    /   O peration     | Website:  https://openfoam.org
    \\  /    A nd           | Version:  7
     \\/     M anipulation  |
\*---------------------------------------------------------------------------*/
FoamFile
{
    version     2.0;
    format      ascii;
    class       volScalarField;
    location    "0.0021";
    object      rho;
}
// * * * * * * * * * * * * * * * * * * * * * * * * * * * * * * * * * * * * * //

dimensions      [1 -3 0 0 0 0 0];

internalField   nonuniform List<scalar> 
1167
(
944.4974153
944.4145833
944.2366396
943.9726536
943.6273445
943.204211
942.706653
942.1380417
941.5013816
940.799915
940.037024
939.2163345
938.3414415
937.4161673
936.4448819
935.4314399
934.3805345
933.2962543
944.3170288
944.2328906
944.0521687
943.7843698
943.4338965
943.0048789
942.5006325
941.9246145
941.2801933
940.5708021
939.7999857
938.9713748
938.0888497
937.1566442
936.1787979
935.1597749
934.103867
933.0158124
931.8999808
930.7608468
929.6028658
928.4304476
927.2477142
926.058604
924.8669584
923.6763266
922.4900139
921.3111559
920.1424528
918.9864515
917.8453917
916.7212289
915.6157889
914.5304627
913.4664312
912.4248177
911.4064866
910.4118763
909.4416036
908.4958671
907.5748644
906.6785446
905.8069413
904.9596472
904.1365775
903.3372355
902.5610563
901.8075667
901.0761446
900.3660617
944.1347181
944.0492895
943.8660322
943.5942746
943.2388728
942.8039279
942.2931572
941.7100303
941.0581046
940.341012
939.5624487
938.7262568
937.836718
936.8978026
935.913975
934.8896887
933.8295286
932.7379698
931.6198267
930.4794897
929.321347
928.1498277
926.96913
925.7832321
924.595855
923.4104797
922.2303738
921.0585414
919.8976711
918.7503573
917.6186731
916.5044741
915.4094
914.334948
913.2822387
912.2521976
911.2456668
910.2631292
909.3049212
908.3714668
907.4626684
906.5786563
905.7192209
904.8840575
904.0730408
903.2855862
902.5211538
901.7792916
901.0592966
900.3604707
943.9506482
943.8640521
943.6781128
943.4024207
943.0422547
942.6015071
942.0842306
941.4941583
940.8349305
940.1103757
939.324398
938.4811551
937.5847255
936.6395358
935.6501572
934.6210652
933.5569574
932.4625838
931.3424886
930.2012383
929.0434437
927.8733714
926.6951519
925.5127162
924.3298217
923.1499358
921.976306
920.8117832
919.6589954
918.5203532
917.39796
916.2937137
915.2090775
914.1453512
913.1037395
912.0851492
911.090129
910.1193917
909.1730197
908.2514619
907.3545418
906.4824441
905.6347879
904.8113968
904.011964
903.2359662
902.4828411
901.752158
901.0431376
900.3551119
943.7649212
943.6770627
943.488446
943.209055
942.8439982
942.3976792
941.8740606
941.2771066
940.6107643
939.8790339
939.0859421
938.2357298
937.3327673
936.3817706
935.3870527
934.3536609
933.2860381
932.1890835
931.067585
929.9259553
928.7687565
927.6003802
926.4250106
925.2464692
924.0684457
922.8942975
921.7272327
920.5700988
919.42553
918.2957497
917.1827664
916.0883062
915.0140382
913.9610562
912.930357
911.9230101
910.9394365
909.9801248
909.0454021
908.1353872
907.25012
906.3895256
905.5533031
904.7413206
903.9530974
903.1881713
902.4459719
901.7260529
901.0275999
900.3499627
943.5774767
943.488367
943.2971782
943.0140986
942.6442195
942.1923505
941.6625622
941.0589519
940.3856704
939.6468742
938.8468077
937.9899463
937.0809064
936.1241734
935.1247161
934.0871089
933.016443
931.9173862
930.7946595
929.6529884
928.4968773
927.3306348
926.1583182
924.9838532
923.8109309
922.6428098
921.4825987
920.3330509
919.1966779
918.0757703
916.9722644
915.8877477
914.8236663
913.781326
912.7615653
911.7651916
910.7928911
909.844817
908.921507
908.0227887
907.1489034
906.2995258
905.4744825
904.6735399
903.8961962
903.142001
902.4104041
901.7008654
901.0126173
900.3450011
943.3883891
943.2981174
943.1044585
942.817565
942.4431078
941.985625
941.4497102
940.839565
940.1594903
939.4138032
938.6070821
937.7438896
936.8288199
935.8668454
934.862716
933.821467
932.7478585
931.6470253
930.5235733
929.3821131
928.2272508
927.0634286
925.8945603
924.7245267
923.5568747
922.3948778
921.2416344
920.0998338
918.9718839
917.8599162
916.7657934
915.6912294
914.6374514
913.6055435
912.5966343
911.6112296
910.6499495
909.713065
908.8008561
907.9133051
907.0504874
906.2120796
905.3979782
904.6077725
903.8410212
903.0972597
902.3759583
901.6764871
900.9981249
900.3402053
943.1979402
943.1064702
942.910202
942.6196225
942.2405487
941.7777187
941.2357165
940.6190945
939.9323794
939.1800669
938.3668167
937.4973299
936.5766236
935.6095449
934.6011114
933.5563245
932.4802916
931.3778286
930.2538125
929.1129641
927.9597657
926.7985002
925.6331908
924.4677753
923.3056569
922.1500676
921.0039394
919.869888
918.750414
917.6475159
916.5629114
915.4981332
914.4546405
913.4332764
912.4349932
911.4605024
910.5100861
909.5842507
908.6829846
907.8064506
906.9544782
906.1268456
905.3234478
904.5437446
903.7873403
903.0537719
902.3424862
901.6528125
900.9840594
900.3355543
943.0060369
942.9133446
942.7144894
942.4204189
942.0366279
941.5685184
941.0206249
940.3977045
939.7044442
938.9455634
938.1259003
937.2504654
936.3242716
935.3522623
934.3397997
933.2917631
932.213376
931.1096902
929.985381
928.845216
927.6938605
926.5354719
925.3740428
924.2133505
923.0568057
921.9077268
920.7688972
919.6428252
918.5318258
917.4379382
916.3629005
915.3080647
914.2746719
913.263822
912.2761665
911.3124429
910.3728983
909.4578984
908.5674869
907.7017793
906.8604939
906.0435346
905.2505853
904.4811897
903.7349277
903.0113631
902.3098437
901.6297386
900.9703594
900.3310275
942.8127253
942.7188234
942.5176319
942.2198987
941.8316852
941.3581398
940.8044481
940.1753413
939.4756665
938.7103643
937.8846327
937.0033786
936.0717486
935.0952256
934.0787264
933.0277458
931.9472893
930.8423794
929.7180459
928.5789093
927.4295028
926.274028
925.1166061
923.9608732
922.8101512
921.667613
920.5360195
919.4179997
918.3156357
917.2308241
916.165232
915.120355
914.0971591
913.0966663
912.1196666
911.1665636
910.2378461
909.3335606
908.4539601
907.5988963
906.7681714
905.9617459
905.1790971
904.4198514
903.6835649
902.9698283
902.2778927
901.6071669
900.9569655
900.3266052
942.6181831
942.5232096
942.3195364
942.0181846
941.6256241
941.1469777
940.5874893
939.9522807
939.2463897
938.4749555
937.6431301
936.7561484
935.8195361
934.8384039
933.8183005
932.7643335
931.6820271
930.5762422
929.4518696
928.3138144
927.1665878
926.0142817
924.8609004
923.7100852
922.5652455
921.4293985
920.3052147
919.1951277
918.101352
917.025693
915.9696259
914.9345561
913.9215804
912.9314058
911.9649733
911.0225067
910.1044724
909.2108514
908.3419548
907.4974437
906.677257
905.8811715
905.1087077
904.3594883
903.6330974
902.9289985
902.2465015
901.585003
900.9438212
900.3222685
942.4225536
942.3264187
942.1202897
941.8156326
941.4185952
940.9349776
940.3699712
939.7288535
939.016883
938.2393786
937.4016459
936.5093689
935.5677254
934.5823553
933.5586352
932.502097
931.4179005
930.3113066
929.1871993
928.0503417
926.9052254
925.7561124
924.6069176
923.4611692
922.32216
921.1928941
920.0761162
918.9740938
917.8888603
916.8222224
915.7757033
914.7504461
913.7475479
912.7677712
911.8117293
910.8799031
909.9724222
909.0895002
908.2311365
907.3971032
906.5873832
905.8015416
905.0391727
904.2998839
903.5832885
902.8887195
902.2155488
901.5631597
900.9308739
900.3179995
942.2257792
942.1285222
941.9201465
941.6121691
941.2109845
940.7223936
940.1520663
939.5052569
938.7874367
938.0041456
937.1609598
936.2633728
935.3169944
934.3275691
933.3004873
932.2413797
931.1556343
930.0482721
928.9243785
927.7888603
926.6460259
925.500068
924.3549102
923.2141833
922.081074
920.9584534
919.8488869
918.7548037
917.6781301
916.620461
915.583296
914.567848
913.5748967
912.6054217
911.6597594
910.7384394
909.8414542
908.9691477
908.1212483
907.2976993
906.4983015
905.7226341
904.9702889
904.2409096
903.5339757
902.8488567
902.1849284
901.5415601
900.9180769
900.3137825
942.027954
941.9297479
941.7192345
941.4079896
941.0029405
940.5097886
939.9342967
939.2820857
938.5588001
937.77007
936.9215482
936.0189821
935.0682596
934.0748708
933.0447412
931.9832846
930.8959654
929.7880692
928.6645533
927.5302255
926.3896017
925.2468587
924.1058042
922.9699113
921.8424625
920.7263835
919.6240483
918.5377064
917.469346
916.4205736
915.3926338
914.3867719
913.4037767
912.4443449
911.5090349
910.5980306
909.7115578
908.8496637
908.0121463
907.1990257
906.4098579
905.6442975
904.901919
904.1823817
903.4850416
902.8093091
902.1545581
901.5201432
900.9053921
900.3096042
941.8294122
941.7302188
941.5176077
941.2035226
940.7947206
940.2973872
939.7172266
939.0600527
938.3316682
937.5378361
936.6844496
935.777467
934.8225518
933.8257608
932.7926243
931.7291485
930.6405154
929.5320051
928.4089478
927.2759638
926.137482
924.9977165
923.8606158
922.7295158
921.6076145
920.497682
919.4023128
918.3235899
917.2632998
916.2230809
915.2042354
914.2076611
913.2343969
912.2848704
911.3596725
910.4588395
909.5827143
908.7311006
907.9039383
907.1010495
906.3220187
905.5664824
904.8340566
904.1242329
903.4364244
902.7700196
902.1243891
901.4988715
900.8927956
900.3054561
941.6300133
941.5299416
941.3155172
940.9989259
940.5868706
940.0857047
939.5014207
938.8398664
938.1069831
937.308744
936.4511953
935.5401408
934.5817366
933.5818055
932.5463122
931.4808558
930.3911931
929.28242
928.1597188
927.027985
925.8916512
924.7548519
923.6213822
922.4947171
921.378091
920.2741316
919.1852805
918.1137352
917.0612475
916.0292136
915.0190288
914.0315598
913.0675507
912.127712
911.2122538
910.3214543
909.4553289
908.6137887
907.7968145
907.0039769
906.2349406
905.489338
904.7667211
904.0665158
903.3881545
902.7310022
902.0944239
901.4777406
900.8802814
900.3013348
941.4298562
941.3290963
941.1133245
940.7944963
940.3798808
939.8756151
939.2878736
938.6227462
937.8862735
937.0844638
936.2233889
935.3091618
934.3479385
933.345554
932.3081444
931.24141
930.1508348
929.0419963
927.9199465
926.7894616
925.6550221
924.5209901
923.390991
922.2684865
921.1565772
920.0581069
918.9754039
917.9104886
916.8651861
915.8409161
914.8387795
913.8598926
912.9047244
911.974042
911.0679232
910.1867258
909.3302383
908.4985435
907.6913498
906.9083013
906.1490274
905.4131941
904.7001691
904.0094281
903.3403809
902.6923655
902.0647384
901.4567998
900.8678761
900.297248
941.2292035
941.128004
940.9111088
940.5907878
940.1742507
939.6678562
939.0777656
938.4101591
937.6711422
936.8668492
936.003457
935.0872094
934.1240371
933.1202649
932.0816601
931.0142513
929.9235022
928.814849
927.693595
926.5645065
925.4320461
924.300425
923.1734905
922.0547451
920.9471739
919.8534776
918.7762008
917.7173058
916.6784185
915.6611032
914.6664161
913.6952242
912.7482832
911.8259856
910.9286647
910.0563543
909.2089721
908.386581
907.5886988
906.8150157
906.0652001
905.3387187
904.6349836
903.9534398
903.2934705
902.6543837
902.0355246
901.4361704
900.8556432
900.2932137
941.0281017
940.9266403
940.7091773
940.3882878
939.9707997
939.4634104
938.8723213
938.2036932
937.4636619
936.6585226
935.7944478
934.8775146
933.9140149
932.9099583
931.8714922
930.8042745
929.7141328
928.6064342
927.4863534
926.3587682
925.2283028
924.0990647
922.9748442
921.8592216
920.7553456
919.6658006
918.5930039
917.5391398
916.5057798
915.4942804
914.5059955
913.541517
912.6017202
911.6868514
910.7973324
909.9330032
909.0939648
908.2799857
907.4906807
906.7257208
905.9847228
905.2670341
904.5720955
903.8993099
903.2480302
902.6175298
902.0071363
901.416098
900.8437259
900.2892771
940.8265901
940.7251978
940.5081125
940.1874492
939.7704911
939.2636325
938.6732209
938.0054865
937.2665557
936.4626382
935.599813
934.6843203
933.7223887
932.7199411
931.6831907
930.6178061
929.5293669
928.4236078
927.3055356
926.1799842
925.0516029
923.9247061
922.8029905
921.6900373
920.5889914
919.502696
918.4334465
917.3833048
916.35418
915.3472825
914.3638566
913.4047492
912.4705889
911.5618367
910.6786567
909.8210263
908.9890319
908.1822758
907.4004307
906.6431999
905.9099938
905.2002079
904.5132487
903.8484751
903.2052061
902.582678
901.9801986
901.3969866
900.8323416
900.2855032
940.6248719
940.524091
940.30807
939.9889663
939.5741472
939.0698989
938.4824823
937.818061
937.0827485
936.2826555
935.4238215
934.5126069
933.5547677
932.556558
931.5237498
930.4623114
929.377612
928.2752037
927.1603875
926.0378408
924.9122027
923.7877709
922.6684611
921.5577923
920.4589261
919.3747882
918.3078419
917.2601115
916.2334783
915.2294208
914.2489924
913.2933083
912.3628188
911.4581878
910.5793901
909.7265994
908.8997139
908.0983983
907.322369
906.5712097
905.8443077
905.141048
904.4608048
903.8028925
903.1665927
902.5510979
901.9556845
901.3795286
900.8219036
900.2820256
940.4231296
940.3233402
940.1094293
939.7936458
939.3828225
938.8836063
938.3019431
937.6438764
936.9154431
936.1225953
935.2714243
934.3678362
933.4176271
932.4269917
931.4014571
930.3468501
929.2685956
928.1720382
927.0624255
925.9445099
924.8228527
923.7017117
922.5851186
921.4766485
920.3795053
919.2966287
918.2307245
917.1838279
916.1578464
915.1545054
914.1748427
913.2200539
912.290725
911.3874981
910.5104213
909.6597824
908.8353752
908.0369287
907.2642254
906.5167164
905.7938292
905.0949232
904.4193451
903.7663706
903.1352472
902.5251288
901.935266
901.3648025
900.8129912
900.279018
940.2213064
940.1231051
939.9127186
939.6019847
939.1977637
938.7062642
938.1336539
937.485606
936.7680129
935.9866974
935.147439
934.2559154
933.3178933
932.3391366
931.325171
930.2814705
929.2134605
928.1262597
927.0249642
925.9143316
924.7988251
923.6826824
922.5699355
921.4642287
920.3688174
919.2867252
918.2207861
917.1731492
916.1458447
915.140761
914.1590642
913.2020699
912.2705266
911.3651572
910.4861327
909.6338573
908.8081542
908.008831
907.2357478
906.4883286
905.7660449
905.06826
904.3943148
903.743463
903.1149222
902.5078024
901.9213073
901.35452
900.8066413
900.2768187
939.9236882
939.7182331
939.4145855
939.0197201
938.5394281
937.9795522
937.3457536
936.6436821
935.8787992
935.0566113
934.1825606
933.2622057
932.3008942
931.3039791
930.2766182
929.2240282
928.1510888
927.0627507
925.9635536
924.8578678
923.74987
922.6435735
921.5425325
920.4500894
919.3694127
918.3032775
917.2540508
916.2239887
915.214991
914.2284949
913.2660572
912.3284903
911.4168228
910.5313394
909.6725703
908.8405647
908.0352227
907.2564909
906.5039316
905.7770629
905.0753011
904.3980226
903.7445034
903.1139711
902.5055374
901.9184038
901.351646
900.8044484
900.2759095
)
;

boundaryField
{
    front_top
    {
        type            wedge;
    }
    front_middle
    {
        type            wedge;
    }
    front_bottom
    {
        type            wedge;
    }
    back_top
    {
        type            wedge;
    }
    back_middle
    {
        type            wedge;
    }
    back_bottom
    {
        type            wedge;
    }
    axis_top
    {
        type            symmetryPlane;
    }
    axis_middle
    {
        type            symmetryPlane;
    }
    axis_bottom
    {
        type            symmetryPlane;
    }
    wall_top
    {
        type            calculated;
        value           nonuniform 0();
    }
    wall_middle
    {
        type            calculated;
        value           uniform 900.0184441;
    }
    wall_bottom
    {
        type            calculated;
        value           nonuniform 0();
    }
    inlet
    {
        type            calculated;
        value           nonuniform 0();
    }
    outlet
    {
        type            calculated;
        value           nonuniform 0();
    }
    procBoundary3to2
    {
        type            processor;
        value           nonuniform List<scalar> 
51
(
940.0195145
940.0195145
939.7252047
939.52614
939.2320402
938.8493486
938.3838651
937.8409978
937.2261675
936.5447075
935.8017921
935.0026081
934.152261
933.2559818
932.3187338
931.3455187
930.3412304
929.3106475
928.2584173
927.1893036
926.1074164
925.0170116
923.9222756
922.8267609
921.7341095
920.647727
919.570652
918.5056429
917.4553364
916.4220632
915.4077225
914.4142591
913.4430665
912.4955024
911.5725993
910.675143
909.8036479
908.958672
908.1402463
907.3484459
906.5832537
905.8442897
905.1311498
904.4433597
903.7803219
903.1413458
902.5255845
901.9322257
901.3602961
900.8089013
900.2770912
)
;
    }
    procBoundary3to4
    {
        type            processor;
        value           nonuniform List<scalar> 
51
(
944.6758156
944.5943076
944.4191821
944.1592376
943.8190217
943.4019443
942.9114249
942.3503018
941.7216159
941.0284166
940.2738937
939.4613426
938.5943914
937.6767736
936.7122568
935.7051939
934.6595245
933.5797081
932.1832167
932.1832167
931.0459402
929.888618
928.7156249
927.5311865
926.3392895
925.1438083
923.9482925
922.7560561
921.5702863
920.3938013
919.2291945
918.0788687
916.9448418
915.828851
914.732464
913.6569998
912.6036369
911.5731575
910.5662686
909.58352
908.6251488
907.6915438
906.7825245
905.8982951
905.0384462
904.2028302
903.3911242
902.602712
901.8370999
901.0937516
900.3719083
)
;
    }
}


// ************************************************************************* //
