/*--------------------------------*- C++ -*----------------------------------*\
  =========                 |
  \\      /  F ield         | OpenFOAM: The Open Source CFD Toolbox
   \\    /   O peration     | Website:  https://openfoam.org
    \\  /    A nd           | Version:  7
     \\/     M anipulation  |
\*---------------------------------------------------------------------------*/
FoamFile
{
    version     2.0;
    format      ascii;
    class       volScalarField;
    location    "0.0021";
    object      T;
}
// * * * * * * * * * * * * * * * * * * * * * * * * * * * * * * * * * * * * * //

dimensions      [0 0 0 1 0 0 0];

internalField   nonuniform List<scalar> 
1167
(
443.4519056
443.5756008
443.8414024
444.2359133
444.7522897
445.3855605
446.1309441
446.9837353
447.9398071
448.994697
450.1437461
451.3819343
452.7042853
454.1054703
455.579311
457.1203834
458.7219547
460.378169
443.7213095
443.8470035
444.1170595
444.5174267
445.0417377
445.6840823
446.4398105
447.3040947
448.2722681
449.3395857
450.5011477
451.7519285
453.0865223
454.4989749
455.9836038
457.5340537
459.1441928
460.8071646
462.5166236
464.26601
466.0487346
467.8582158
469.6882537
471.5328707
473.3861793
475.242687
477.0972263
478.9448428
480.7812169
482.6022276
484.4042
486.1838752
487.9381715
489.664674
491.3612841
493.0259814
494.6571475
496.2538398
497.8148274
499.3395496
500.82745
502.2783769
503.6920475
505.0689009
506.4088605
507.7125286
508.9806296
510.2137491
511.4127266
512.5785877
443.9936917
444.1213629
444.3953149
444.8017624
445.3336636
445.9851563
446.7509943
447.6263372
448.6062396
449.6856627
450.8594821
452.1223552
453.4682684
454.8916632
456.3862089
457.9455582
459.5631236
461.2324382
462.9464642
464.6987544
466.4828071
468.2919956
470.1199852
471.9607193
473.8084803
475.6578659
477.503753
479.3413792
481.1664314
482.9747025
484.7627697
486.5275242
488.2661731
489.9761282
491.6553825
493.3022285
494.9150823
496.4929302
498.0349915
499.5403449
501.0089114
502.4402498
503.8344736
505.1918594
506.5123999
507.7968443
509.0458802
510.2600627
511.4403676
512.5877747
444.2688089
444.3982755
444.6763469
445.0888449
445.6280983
446.2885622
447.0644934
447.9506618
448.9420022
450.0331845
451.2187734
452.4929507
453.8500089
455.2836958
456.7875124
458.3550699
459.9795995
461.6542019
463.3722387
465.1269793
466.9115632
468.719596
470.5448317
472.3812711
474.2231243
476.0649951
477.9017765
479.7289329
481.5422345
483.3377535
485.1120118
486.8618256
488.5846753
490.2782825
491.9405038
493.5696587
495.1646323
496.7240426
498.2475175
499.7340976
501.1838337
502.5961992
503.9715884
505.3100728
506.6119443
507.8778561
509.1085366
510.3045093
511.4668791
512.5965803
444.5465118
444.6779176
444.9601056
445.3783077
445.9251108
446.5942088
447.3799985
448.2769086
449.2794176
450.3819404
451.5788587
452.8642294
454.2319025
455.6751826
457.1879565
458.762957
460.3937924
462.0733242
463.7945262
465.5508882
467.3356092
469.1420868
470.9639746
472.7954264
474.630742
476.4646821
478.2921886
480.1087192
481.9100223
483.6924555
485.4526818
487.1877843
488.8949115
490.5721076
492.2175586
493.8293231
495.4064896
496.9480363
498.4531997
499.9215535
501.3528022
502.7468413
504.1039395
505.4240995
506.7078991
507.9558967
509.1688372
510.3472736
511.492372
512.6050414
444.8268935
444.9602239
445.2463752
445.670272
446.2245302
446.9022397
447.6976401
448.6049651
449.6183914
450.7321021
451.9401523
453.2362449
454.6138541
456.0666297
457.587456
459.1697764
460.8061996
462.4899271
464.2140217
465.9714783
467.7555677
469.5597988
471.3780063
473.2041672
475.0325636
476.8580959
478.6758478
480.4814133
482.2707241
484.040023
485.7860796
487.5061891
489.1978512
490.8587691
492.4873789
494.0821569
495.6417677
497.165728
498.6529378
500.1034413
501.5166212
502.8927808
504.231986
505.5344079
506.8006623
508.0312924
509.227014
510.3885372
511.5169551
512.6131946
445.1098458
445.2449692
445.5349351
445.9647205
446.5260757
447.2125016
448.0174587
448.9350279
449.9591645
451.0838121
452.302524
453.6088691
454.9963534
456.457883
457.986667
459.5754378
461.2172981
462.904722
464.6309338
466.38909
468.1722894
469.9738183
471.7877167
473.608016
475.4292081
477.2461572
479.053951
480.8482719
482.6252047
484.3812346
486.1132414
487.8183153
489.4942976
491.1392435
492.7511239
494.3288968
495.8713328
497.3777612
498.8474978
500.2803406
501.6759425
503.0346075
504.356291
505.6414554
506.8906225
508.104362
509.28336
510.4284772
511.5407348
512.6210753
445.3949499
445.5319224
445.8259156
446.2614039
446.8299214
447.5246732
448.3391384
449.2668761
450.3015049
451.4367017
452.6658974
453.9824514
455.3792252
456.8493095
458.3854986
459.9805669
461.6270743
463.31797
465.0460487
466.8042813
468.5859409
470.3845443
472.1939475
474.0080777
475.8216357
477.6295373
479.4271182
481.2101669
482.9746131
484.7171432
486.4348601
488.1251366
489.7854426
491.4142134
493.0097006
494.5705332
496.0960241
497.585126
499.0376258
500.4530331
501.831401
503.1728725
504.477409
505.7456866
506.978157
508.1753913
509.3381173
510.4672665
511.5638145
512.6287181
445.6823477
445.8212072
446.1191985
446.5601033
447.1359418
447.8389268
448.6626162
449.6002649
450.6452542
451.790926
453.0304422
454.3566923
455.76254
457.2409241
458.7841066
460.3850373
462.0360875
463.729831
465.4593573
467.2175504
468.9973854
470.7925568
472.5969521
474.4047335
476.210577
478.0092506
479.79631
481.567702
483.3196402
485.0487403
486.7520668
488.4272735
490.0721746
491.6847948
493.2638644
494.8079708
496.316484
497.7885846
499.2239727
500.6222368
501.9836126
503.3080432
504.5958358
505.8475341
507.0636336
508.2446649
509.3915215
510.5050733
511.5862954
512.6361568
445.9719729
446.1127024
446.4143198
446.8609045
447.4436292
448.1550914
448.9878749
449.9352773
450.9904419
452.1463789
453.3957062
454.7314677
456.1463214
457.6323796
459.1825738
460.7889046
462.4440637
464.1406569
465.8712146
467.628831
469.4066693
471.1983411
472.9975189
474.798569
476.5962922
478.3856714
480.1622878
481.9218883
483.6610437
485.3765885
487.0656944
488.725784
490.3551046
491.9518042
493.5143912
495.0419876
496.5335771
497.9888545
499.4071858
500.7885875
502.1331635
503.4407682
504.7120474
505.9474146
507.1474076
508.3125171
509.443798
510.5420594
511.6082745
512.6434239
446.2635617
446.4059561
446.7114216
447.1636259
447.7531307
448.4725754
449.3144605
450.2714996
451.3365512
452.5023271
453.7615142
455.1066585
456.5298376
458.0237228
459.5802747
461.1920744
462.8510078
464.5499137
466.2815224
468.0384746
469.8139512
471.6017176
473.3956131
475.1899825
476.9794766
478.7593086
480.5251908
482.2731681
483.9995954
485.7014436
487.3761832
489.0213764
490.6350601
492.2158824
493.7621106
495.2731544
496.7480352
498.1865551
499.5879884
500.9526624
502.2804633
503.5715462
504.8264906
506.0457203
507.2297308
508.3792236
509.4951623
510.5783789
511.6298446
512.6505506
446.5569018
446.7010975
447.0103759
447.4677351
448.0642224
448.7914628
449.6420393
450.6084346
451.6831769
452.8587081
454.1274827
455.4813629
456.9129491
458.4141019
459.9770351
461.5936707
463.2564399
464.9575551
466.6897415
468.4458433
470.219057
472.0028694
473.7912431
475.5786846
477.3600143
479.1304548
480.885591
482.6217191
484.3354719
486.0238128
487.6841307
489.3144003
490.9126564
492.4774567
494.007592
495.5020612
496.960427
498.38212
499.7669187
501.1149749
502.4261061
503.7008139
504.9395623
506.1428032
507.3109885
508.4450363
509.5458124
510.6141748
511.6510921
512.6575659
446.8520812
446.9980212
447.3108028
447.7733446
448.3763256
449.1113728
449.9703526
450.9457855
452.0298809
453.2147477
454.4924294
455.8550744
457.2946229
458.8027689
460.3716957
461.9931645
463.659244
465.3625013
467.0953382
468.8503618
470.621036
472.4009404
474.1840108
475.9645797
477.73762
479.4985505
481.2432281
482.9676858
484.6687177
486.3436151
487.9898008
489.6051344
491.1881538
492.7370694
494.2511137
495.729209
497.1711393
498.5761272
499.9443905
501.2758076
502.5704939
503.8289313
505.0515922
506.2388725
507.3914458
508.5101746
509.5959223
510.649573
511.6720937
512.6644959
447.1489614
447.2963876
447.6125121
448.0801625
448.6892184
449.4314591
450.2986141
451.2826546
452.37553
453.5692127
454.8556296
456.2265414
457.6734602
459.1884601
460.7628999
462.3888604
464.0582825
465.7633137
467.4965377
469.250701
471.0189321
472.7948205
474.572467
476.346438
478.1115445
479.8631085
481.5972762
483.310356
484.9990369
486.6605861
488.2928252
489.89356
491.4613106
492.9947383
494.4927202
495.9547327
497.3801872
498.768785
500.120635
501.4354937
502.7138753
503.956144
505.162803
506.3342271
507.4712938
508.5748036
509.6456263
510.6846736
511.6929117
512.6713623
447.4470425
447.5960137
447.9154243
448.3875457
449.0025143
449.7513834
450.6259727
451.6179645
452.7190709
453.9210636
455.215504
456.5938283
458.0478852
459.5688788
461.1487625
462.7787009
464.4510551
466.1579696
467.8914407
469.6444887
471.4103639
473.1825843
474.9550186
476.7224335
478.4797604
480.2225547
481.9466077
483.6484797
485.3251717
486.9738954
488.5923757
490.1789674
491.7317905
493.2499336
494.732222
496.1783694
497.5875998
498.9600083
500.2954772
501.5940854
502.8563047
504.0825316
505.2732051
506.4289761
507.5506334
508.6390164
509.695004
510.7195379
511.7135852
512.6781792
447.7465368
447.8968909
448.2191633
448.6952576
449.315392
450.0703686
450.9515746
451.9506423
453.0590748
454.2683255
455.5697211
456.9549295
458.4150455
459.9416227
461.5259426
463.1597831
464.8346138
466.5428493
468.2767016
470.028754
471.7922369
473.5607789
475.3284752
477.0898645
478.8398093
480.5740779
482.2886927
483.9800265
485.6451274
487.2815847
488.8869716
490.4596884
491.9983227
493.5015099
494.9686841
496.3991714
497.7927227
499.1492626
500.4686086
501.7512484
502.9975273
504.2078512
505.3827662
506.5230339
507.6294146
508.7027901
509.7440515
510.7541729
511.7341242
512.684952
448.0472975
448.19875
448.5231864
449.0028519
449.6271122
450.3870956
451.2739159
452.2788403
453.3932214
454.6084578
455.9158355
457.3065493
458.7716883
460.3027814
461.8908406
463.5274796
465.204577
466.9137969
468.6475395
470.3985612
472.1600076
473.9251418
475.6883113
477.4440644
479.1874638
480.9139294
482.6196527
484.3012777
485.9557311
487.5805587
489.1737968
490.7334452
492.2585269
493.747586
495.2002671
496.6157685
497.9942065
499.3352302
500.6390985
501.9061826
503.1368871
504.3315664
505.4910688
506.6160776
507.7073941
508.7659469
509.7926445
510.788498
511.7544851
512.6916683
448.3489312
448.5011095
448.8273749
449.3094941
449.9369208
450.7004482
451.591209
452.6003333
453.719074
454.938637
456.2501456
457.6445914
459.1134016
460.6473522
462.2380112
463.8764826
465.5546669
467.2644368
468.9977964
470.7475065
472.5067308
474.2689572
476.0281788
477.7788701
479.5162652
481.236001
482.9339211
484.6067541
486.251735
487.866176
489.4481792
490.9961377
492.508615
493.9847514
495.4237811
496.825422
498.1895833
499.515946
500.8050778
502.0572778
503.2728889
504.4525909
505.5971628
506.707341
507.7839727
508.8280384
509.8404684
510.8223142
511.7745637
512.6982985
448.6513693
448.8040067
449.1312663
449.6144489
450.2435796
451.0089391
451.9015966
452.9127087
454.0334796
455.2548677
456.5679983
457.9641122
459.4340819
460.969158
462.5603219
464.1992391
465.877245
467.586311
469.3186324
471.0667916
472.8236936
474.5829795
476.3387246
478.0852752
479.8176019
481.5315167
483.2230581
484.8885987
486.5254537
488.1312598
489.7036428
491.2414294
492.7429895
494.2076947
495.6346361
497.0238412
498.3749241
499.6880402
500.9636012
502.2019384
503.4034794
504.5690991
505.6995323
506.7955859
507.8581589
508.8882911
509.8869439
510.8552189
511.7941247
512.7047679
448.9545532
449.107152
449.4339832
449.9170315
450.5456317
451.3105162
452.2025295
453.2127176
454.3322938
455.55234
456.8641186
458.2586176
459.7267993
461.2600423
462.8492221
464.4859827
466.1620368
467.8687856
469.5986783
471.3443616
473.098698
474.8550031
476.607493
478.350509
480.0790239
481.7884389
483.4749791
485.1352072
486.7659002
488.3649218
489.9300686
491.459758
492.9527505
494.4080716
495.825223
497.2040108
498.5440705
499.8458245
501.1095918
502.3356504
503.5247629
504.6777276
505.7953361
506.8784686
507.9280809
508.9452751
509.9310473
510.8865495
511.8128113
512.7109702
449.2581781
449.4099216
449.7352892
450.216192
450.8418303
451.6030917
452.4909434
453.4965246
454.6110598
455.8257734
457.1319809
458.5204795
459.9829462
461.5102491
463.0939345
464.7251841
466.3960315
468.098158
469.8235589
471.5651219
473.3157258
475.0687131
476.8179586
478.5579003
480.2834844
481.9899828
483.6733546
485.3302195
486.9573972
488.5523242
490.1130973
491.6377044
493.1251873
494.5742445
495.9846782
497.355977
498.6880772
499.9812992
501.2358895
502.4523188
503.6313865
504.7739076
505.8807266
506.9527959
507.9911333
508.9969135
509.971185
510.9151708
511.8299451
512.7166855
449.5619695
449.7122846
450.0346108
450.5107093
451.130576
451.8845436
452.764043
453.7603834
454.8648938
456.0690286
457.3640137
458.7413287
460.1925835
461.7087308
463.281688
464.9028528
466.5641736
468.2576533
469.975373
471.7101093
473.4548663
475.203055
476.9483752
478.6851821
480.4083612
482.1131661
483.795178
485.451001
487.0774153
488.6714663
490.2312746
491.7546993
493.2405633
494.6875979
496.0954854
497.4635283
498.7918275
500.0805975
501.3299755
502.5406438
503.7133351
504.8489043
505.9482392
507.0123541
508.0423219
509.0393799
510.0046184
510.9393143
511.8445749
512.7216284
449.8660134
450.0139994
450.3311489
450.7998278
451.4099773
452.1525768
453.0187069
454.0002201
455.0886486
456.2756278
457.5528436
458.9121121
460.3450783
461.8433468
463.3988335
465.0034768
466.6492266
468.3284388
470.0334362
471.7569968
473.492288
475.232764
476.9721365
478.7046658
480.4251679
482.128776
483.8108792
485.4679105
487.0964623
488.6933269
490.2564244
491.7834243
493.2728914
494.723426
496.1345122
497.5052626
498.8357276
500.1259912
501.3760613
502.5866601
503.7584451
504.8922609
505.9890013
507.0497133
508.0755155
509.0677145
510.0274754
510.9561728
511.8549986
512.7252429
450.3146091
450.6244545
451.0826314
451.6788911
452.4048239
453.2519816
454.2122142
455.2774003
456.439703
457.6912061
459.0240686
460.4302399
461.9019515
463.4313792
465.0109455
466.6329237
468.2900456
469.974869
471.6805229
473.4003358
475.1278748
476.8569009
478.5818349
480.2973778
481.9984542
483.6805644
485.3398148
486.9724549
488.5752713
490.1457636
491.6812251
493.180123
494.6405725
496.0618762
497.4429431
498.7834586
500.0833536
501.3424921
502.5613675
503.7405562
504.8808113
505.9829629
507.0480164
508.0770687
509.0714186
510.0322299
510.9608848
511.8585984
512.7267371
)
;

boundaryField
{
    front_top
    {
        type            wedge;
    }
    front_middle
    {
        type            wedge;
    }
    front_bottom
    {
        type            wedge;
    }
    back_top
    {
        type            wedge;
    }
    back_middle
    {
        type            wedge;
    }
    back_bottom
    {
        type            wedge;
    }
    axis_top
    {
        type            symmetryPlane;
    }
    axis_middle
    {
        type            symmetryPlane;
    }
    axis_bottom
    {
        type            symmetryPlane;
    }
    wall_top
    {
        type            convectiveRadiativeHeatFlux;
        mode            convectiveRadiative;
        kappaMethod     fluidThermo;
        kappa           none;
        alphaAni        Anialpha;
        h               nonuniform 0();
        Ta              constant 513.15;
        emissivityNozzle 0.95;
        emissivityFilament 0.95;
        dNozzle         2;
        dFilament       1.65;
        refValue        nonuniform 0();
        refGradient     nonuniform 0();
        valueFraction   nonuniform 0();
        value           nonuniform 0();
    }
    wall_middle
    {
        type            fixedValue;
        value           uniform 513.15;
    }
    wall_bottom
    {
        type            fixedValue;
        value           nonuniform 0();
    }
    inlet
    {
        type            fixedValue;
        value           nonuniform 0();
    }
    outlet
    {
        type            zeroGradient;
    }
    procBoundary3to2
    {
        type            processor;
        value           nonuniform List<scalar> 
51
(
450.1701404
450.1701404
450.6139384
450.9142712
451.3582185
451.9363126
452.6401075
453.4617868
454.393538
455.4276935
456.556827
457.7734848
459.0703179
460.4397586
461.8746124
463.3675855
464.9115014
466.49931
468.1241077
469.7787531
471.4570569
473.152546
474.8587957
476.5703116
478.2814067
479.9867114
481.6813836
483.3609793
485.0212069
486.6582235
488.2688398
489.8497699
491.3985837
492.9128936
494.3908188
495.8308667
497.2319764
498.5930163
499.9137052
501.1936966
502.4327988
503.6314156
504.790001
505.9091332
506.9896025
508.0323623
509.0386347
510.0095969
510.9467026
511.8512886
512.7247951
)
;
    }
    procBoundary3to4
    {
        type            processor;
        value           nonuniform List<scalar> 
51
(
443.1855693
443.3072412
443.5687328
443.9570521
444.4656083
445.0895579
445.8240835
446.6652717
447.6089352
448.6508955
449.7867788
451.0120598
452.3217126
453.7105425
455.1732881
456.7037752
458.296425
459.9448281
462.0823174
462.0823174
463.8277859
465.6084033
467.4176597
469.2492131
471.0970279
472.9551823
474.818199
476.680913
478.538304
480.3858814
482.2194627
484.0351264
485.8295233
487.5997197
489.3430264
491.0571298
492.739924
494.3899239
496.0057583
497.5863025
499.1309336
500.6387848
502.1099114
503.5437514
504.9407437
506.3009107
507.6245676
508.9125182
510.1653779
511.3838416
512.5689809
)
;
    }
}


// ************************************************************************* //
