/*--------------------------------*- C++ -*----------------------------------*\
  =========                 |
  \\      /  F ield         | OpenFOAM: The Open Source CFD Toolbox
   \\    /   O peration     | Website:  https://openfoam.org
    \\  /    A nd           | Version:  7
     \\/     M anipulation  |
\*---------------------------------------------------------------------------*/
FoamFile
{
    version     2.0;
    format      ascii;
    class       volScalarField;
    location    "0.0003";
    object      generalizedNewtonian:nu;
}
// * * * * * * * * * * * * * * * * * * * * * * * * * * * * * * * * * * * * * //

dimensions      [0 2 -1 0 0 0 0];

internalField   nonuniform List<scalar> 
1167
(
412.8343756
411.5098145
409.3067633
405.4774978
400.7020882
395.014888
388.5141556
381.3179005
373.5381779
365.2863955
356.6541066
347.7235339
338.582588
329.2981819
319.9264917
310.5354235
301.1576388
291.8421134
282.6177375
384.354843
383.0782575
381.2227579
377.710252
373.3835061
368.2289458
362.3392855
355.8232847
348.7865079
341.3230243
333.5117204
325.4337511
317.1672899
308.7638505
300.2848465
291.7759601
283.2738947
274.8238019
266.4433611
258.1688597
250.0110971
241.995156
234.1281999
226.4264987
218.8937435
211.5409897
204.3693616
197.3860883
190.5891253
183.9838439
177.5656541
171.3385311
165.2964664
159.4428002
153.7697393
148.2801928
142.9661677
137.8308621
132.8660421
128.0751622
123.4504432
118.9959555
114.7048615
110.5808336
106.6179328
102.8190981
99.17909426
95.70402778
92.39795979
89.19823049
355.8664874
354.634264
353.1044181
349.88956
345.9830579
341.3392342
336.0347552
330.1716888
323.8444039
317.1298342
310.1031092
302.8455468
295.4109286
287.8525774
280.2282942
272.5685989
264.9160644
257.2975146
249.7387587
242.2644312
234.8864158
227.6269697
220.4887786
213.4908634
206.6305454
199.9241196
193.3664754
186.9700123
180.7281813
174.6507024
168.7305742
162.9747111
157.3770152
151.9419689
146.6638694
141.5456489
136.5828861
131.7775719
127.1261605
122.6302456
118.2872073
114.0987529
110.0625353
106.1800701
102.4489409
98.87006481
95.44018241
92.16498047
89.05000026
86.02511908
327.7089762
326.5226551
325.2886858
322.358022
318.8521625
314.6910211
309.9394857
304.6924774
299.0276553
293.0177403
286.7373608
280.248502
273.6004522
266.8479137
260.0296219
253.1788271
246.3340624
239.5118138
232.7423715
226.0369249
219.4151872
212.8862616
206.4615357
200.1479916
193.952133
187.8795364
181.933728
176.1180432
170.434497
164.8847629
159.4700256
154.1908102
149.0483907
144.0418856
139.1726071
134.4393011
129.843997
125.3851256
121.0649872
116.8820541
112.8390384
108.9346363
105.17092
101.5465329
98.0628902
94.71785787
91.51135358
88.44661727
85.53280227
82.69167748
300.210479
299.0771382
298.109766
295.4500548
292.3178656
288.6059629
284.3693786
279.6895666
274.6393502
269.2878164
263.7014173
257.9282557
252.0175062
246.0169724
239.9556443
233.8701907
227.7841726
221.7187936
215.6963463
209.7250358
203.8258099
197.9995404
192.2623906
186.6128275
181.0630617
175.6109601
170.2655826
165.0236566
159.8930448
154.8695341
149.9601162
145.1605009
140.4774719
135.9060929
131.4531413
127.114027
122.8958883
118.7944816
114.8164087
110.958148
107.2259385
103.6165386
100.1351258
96.77815792
93.55007736
90.44608253
87.46892859
84.61972079
81.91088863
79.25821706
273.6745321
272.59909
271.8617811
269.4535498
266.665002
263.365285
259.5973729
255.4380719
250.9536647
246.2119269
241.2613843
236.1479607
230.9216105
225.6145326
220.257115
214.8819848
209.5043998
204.148963
198.8263955
193.5510476
188.3323266
183.176719
178.0923995
173.0810862
168.1503172
163.2993175
158.5342019
153.8530313
149.2612231
144.7565176
140.3436126
136.0210319
131.7927165
127.6577425
123.6198012
119.6790712
115.8390769
112.1006142
108.4670203
104.9393782
101.5208184
98.21194631
95.01516861
91.93036423
88.95918519
86.0995684
83.35230241
80.72047107
78.2166777
75.75415748
248.3408273
247.3254762
246.780041
244.6052961
242.1270491
239.1993145
235.8575298
232.1721383
228.2088674
224.0184396
219.6466542
215.1392694
210.5355733
205.8633845
201.1548777
196.4305866
191.708305
187.0074136
182.3342407
177.7057641
173.1228451
168.5959882
164.12549
159.7178417
155.3731365
151.0953139
146.8838386
142.7417038
138.6681957
134.6659823
130.7346818
126.8774359
123.0937964
119.3873738
115.7582806
112.2109634
108.7458117
105.3675768
102.0767497
98.87813937
95.77216013
92.76263394
89.84947044
87.03550038
84.32002641
81.70362736
79.18479167
76.76943111
74.46860531
72.19615156
224.3875819
223.4360791
223.0468681
221.0852868
218.8875031
216.2958832
213.339029
210.0856234
206.5895762
202.8960759
199.0476349
195.0885665
191.0471833
186.9518431
182.8304263
178.6976101
174.5736686
170.4687062
166.393055
162.3557249
158.3594014
154.4117523
150.5108189
146.6639345
142.8667413
139.1257506
135.4355622
131.8023607
128.2208084
124.6969385
121.2264725
117.8155687
114.4607856
111.1683661
107.9364115
104.7714207
101.6724546
98.64593698
95.69140958
92.81509366
90.01643217
87.30066502
84.6665702
82.11869277
79.6547209
77.27735549
74.98321248
72.78068112
70.67926913
68.59402483
201.943485
201.0581832
200.7948541
199.0307236
197.0858602
194.7958577
192.186697
189.3188238
186.2395339
182.9903589
179.6139486
176.1431173
172.6048404
169.0282589
165.4317516
161.8313042
158.2439818
154.6757572
151.139282
147.6364565
144.1734443
140.751457
137.3724418
134.0373486
130.7456738
127.498012
124.2928756
121.1310846
118.0110255
114.9340428
111.8994085
108.9089223
105.9627444
103.0634541
100.2124953
97.41309235
94.66745765
91.97908631
89.35052933
86.78529876
84.28546881
81.8539222
79.49193135
77.2018385
74.98358314
72.83794267
70.76333772
68.76769435
66.86084906
64.95857607
181.0979115
180.2804006
180.1163539
178.5332504
176.8141687
174.7945525
172.4942392
169.9677373
167.2583639
164.4060655
161.447072
158.4090011
155.3187838
152.2006598
149.0694683
145.9428607
142.8307796
139.7414866
136.6834503
133.6575177
130.6707763
127.720069
124.8099159
121.9365629
119.1021549
116.3028847
113.5400581
110.8102275
108.114578
105.4506357
102.8202589
100.2217523
97.6578404
95.12806435
92.63629945
90.18298854
87.77268234
85.40633088
83.08875999
80.82111081
78.60752491
76.44878798
74.3481839
72.3061334
70.3245671
68.40248618
66.54021295
64.744307
63.02615568
61.30123084
161.8959716
161.1457946
161.0570661
159.6381936
158.1211101
156.3401568
154.3120841
152.0872363
149.7054257
147.2040853
144.6117104
141.9542746
139.258898
136.5425378
133.8206483
131.1088366
128.413636
125.7452725
123.1069357
120.5024739
117.9339667
115.4008801
112.9046883
110.4422341
108.0144289
105.616813
103.2505062
100.910715
98.5989607
96.31128327
94.04986362
91.81169983
89.59983761
87.41278543
85.25455452
83.12478915
81.02810391
78.96482527
76.93989074
74.9537418
73.01087103
71.11125655
69.25896979
67.45322649
65.69734971
63.98888738
62.32974265
60.72519835
59.18780591
57.63416725
144.3394099
143.6545599
143.6217343
142.3527115
141.0128518
139.4418734
137.6538971
135.694996
133.6032694
131.4081149
129.1362238
126.8132744
124.460717
122.0938917
119.7291142
117.3765832
115.0440887
112.7400858
110.4659302
108.2272226
106.0223706
103.8533073
101.7179845
99.61574864
97.54411343
95.50116977
93.48455643
91.49196532
89.52166895
87.57190692
85.64169967
83.7301245
81.83734566
79.96373177
78.1105513
76.27917019
74.47164201
72.68997329
70.93670955
69.21380164
67.52365057
65.86776622
64.24832198
62.66603342
61.12247203
59.61659122
58.1495233
56.72684169
55.36089066
53.97132599
128.3964592
127.7748358
127.7814632
126.6467693
125.4637499
124.0778999
122.5013747
120.7777032
118.9386123
117.0105592
115.0180817
112.9858053
110.9300124
108.8660691
106.8086573
104.7653588
102.7455039
100.7536884
98.79325124
96.86736772
94.97498773
93.1182575
91.29348985
89.50168784
87.73802196
86.0024916
84.2902865
82.60094813
80.93035965
79.27836757
77.64160095
76.02062215
74.41329988
72.8212948
71.24360853
69.68278567
68.13869751
66.61449669
65.11064432
63.63015226
62.173563
60.74349805
59.34043339
57.96627747
56.62108873
55.30509939
54.01817666
52.76695656
51.56197619
50.32856462
114.0078476
113.4462176
113.4803963
112.4673102
111.422998
110.2001413
108.8103166
107.2920544
105.6730286
103.9773729
102.2289584
100.4469257
98.64683382
96.84421444
95.04955059
93.27100154
91.51732264
89.79117035
88.09751264
86.43688561
84.81048954
83.21798178
81.65786801
80.12904379
78.62840204
77.15458926
75.7036765
74.27440919
72.86298936
71.46858326
70.08786115
68.72076232
67.36500809
66.02153201
64.68905526
63.36936891
62.06198357
60.76938344
59.49148054
58.2308743
56.98742712
55.76376483
54.55937961
53.37675339
52.21475305
51.07457118
49.95497228
48.86332189
47.80837049
46.7218551
101.0969908
100.5918169
100.6443505
99.74091745
98.81892379
97.73989784
96.51376693
95.1744699
93.74711623
92.25415905
90.71654865
89.15040711
87.57077308
85.99143467
84.42092673
82.8684026
81.33966373
79.8385194
78.36922673
76.93168307
75.52851935
74.1576574
72.81942589
71.51107975
70.23145103
68.9774591
67.74708879
66.53737874
65.34619526
64.17089548
63.00963949
61.86054419
60.7225585
59.59469572
58.47669395
57.36838277
56.2701766
55.18259969
54.10631062
53.04209287
51.99058142
50.95271466
49.92879027
48.91969485
47.92514012
46.94544804
45.97966462
45.03473929
44.11811776
43.16828836
89.57257907
89.11985515
89.18364237
88.37858897
87.56484157
86.61217948
85.52892989
84.34603968
83.08591431
81.76966066
80.41390605
79.03380498
77.64408314
76.25516322
74.87566317
73.51451042
72.17564342
70.86416582
69.5823849
68.33185595
67.11385668
65.92736145
64.77266316
63.64699706
62.55014305
61.47824801
60.43073033
59.40353981
58.39587623
57.40390038
56.4269609
55.4618803
54.50855933
53.56456242
52.63038244
51.70429266
50.78733395
49.87839996
48.9786471
48.08729874
47.20549948
46.33269336
45.46973854
44.616149
43.772348
42.93755026
42.1115639
41.29992012
40.50982365
39.68561923
79.33303771
78.92849214
78.99841791
78.28194386
77.56338251
76.7212496
75.76334679
74.71741911
73.6041814
72.44079297
71.24246338
70.02343497
68.79633838
67.57017976
66.35399401
65.15428987
63.97555819
62.82289241
61.6975569
60.60239981
59.53737705
58.50307025
57.4986286
56.52306651
55.57498107
54.65233886
53.7534696
52.8759008
52.01787877
51.17680376
50.3511622
49.53869252
48.7383498
47.94832476
47.16808425
46.39627943
45.63290453
44.87690696
44.12852433
43.38679917
42.65220741
41.92371883
41.20191321
40.48554363
39.77534794
39.06961674
38.36873284
37.67687554
37.00084694
36.29123356
70.27180169
69.91133043
69.98410798
69.34634628
68.71148436
67.96667813
67.11900162
66.1936321
65.20847081
64.17815138
63.11649291
62.03704064
60.94963685
59.86301159
58.78587577
57.72304028
56.6798615
55.65981983
54.66515497
53.69831878
52.75923464
51.8494227
50.96733738
50.11338004
49.28540681
48.48287853
47.7034213
46.9459776
46.20803984
45.48834486
44.78456284
44.09558
43.41937948
42.75509657
42.1010698
41.45672202
40.82076914
40.1927161
39.57147699
38.95657682
38.34714105
37.74259148
37.14217532
36.54516793
35.95113618
35.35886803
34.76812242
34.18258748
33.60797132
33.00180897
62.2811216
61.96047353
62.03348006
61.46618209
60.90533414
60.24640884
59.49600164
58.67677733
57.80342252
56.88926007
55.94715536
54.98826008
54.02145087
53.0553705
52.09664271
51.15021015
50.22152836
49.31286925
48.42743828
47.56659579
46.73152382
45.92278743
45.14014705
44.38358339
43.65183531
42.94446295
42.25965396
41.59667653
40.95338515
40.32894155
39.7212083
39.12943073
38.55158567
37.98706028
37.43397598
36.89191602
36.35910201
35.83514169
35.31822683
34.80805894
34.30277484
33.80210531
33.30416679
32.80864163
32.31408605
31.8197755
31.32461508
30.83229996
30.34657495
29.83291773
55.2551331
54.97041601
55.04226302
54.53797162
54.04262046
53.45962319
52.79548135
52.06919781
51.29400684
50.48171781
49.64411004
48.79007531
47.92797145
47.06586188
46.20889681
45.36246419
44.53057624
43.71600434
42.92185644
42.14902756
41.39952243
40.67321951
39.97100424
39.29223702
38.63693432
38.00412377
37.39329663
36.80320561
36.23302019
35.68140796
35.14746536
34.62986713
34.12770437
33.63968039
33.16490227
32.70212389
32.25034085
31.80822699
31.37462045
30.94817122
30.52753257
30.11133227
29.69806815
29.28665688
28.87567841
28.46411488
28.05063949
27.63854453
27.22990287
26.7978125
49.09269805
48.84023299
48.91015101
48.46207468
48.0247439
47.50932704
46.92091568
46.27658964
45.58789588
44.86566402
44.11926921
43.35692128
42.586535
41.81433633
41.04534728
40.2848847
39.53577766
38.80141869
38.08389995
37.38491118
36.70584223
36.04717812
35.40978174
34.7932827
34.19812537
33.62345946
33.06940324
32.53478641
32.01950613
31.52230695
31.04298478
30.58025481
30.13382779
29.70238259
29.2855547
28.88192227
28.49088712
28.11079247
27.74083551
27.37909246
27.02458059
26.675115
26.3296468
25.98620112
25.64379027
25.30058517
24.95582676
24.61137974
24.26883487
23.90750394
43.69836169
43.4747026
43.54231673
43.14437425
42.75876203
42.30279933
41.78136494
41.20951993
40.59748824
39.95450075
39.28843415
38.60679942
37.91666073
37.22303805
36.53105574
35.84472465
35.16705178
34.50130611
33.84895335
33.2122386
32.59185973
31.98912057
31.40425466
30.83786873
30.28987992
29.76048486
29.24933286
28.75637316
28.2811151
27.82343674
27.38276109
26.95892238
26.5512427
26.15949915
25.7828784
25.4209368
25.07256421
24.736993
24.41278652
24.09877676
23.79318341
23.49448092
23.20085832
22.91074641
22.62255163
22.33464522
22.04602421
21.75786245
21.47094454
21.17044101
38.98343339
38.7854063
38.85070689
38.4976164
38.15748361
37.75416631
37.2921286
36.78458425
36.24063812
35.66756547
35.07251693
34.46243021
33.84276278
33.21826013
32.59377807
31.97225108
31.35702349
30.75038787
30.1542944
29.57042595
28.99974914
28.44348308
27.90192361
27.37591926
26.86541675
26.37097405
25.89234018
25.42987561
24.98332288
24.55293005
24.13848316
23.74011809
23.3576372
22.99105159
22.64006609
22.30438358
21.98343441
21.67652083
21.38264973
21.10061712
20.82892383
20.56601962
20.3101394
20.0596793
19.81283827
19.56814693
19.32419473
19.08202057
18.84093408
18.59232076
34.75449263
34.44104635
34.14123653
33.78465455
33.37538585
32.92524133
32.44142404
31.93039371
31.3985442
30.85174017
30.29453381
29.73153888
29.16639867
28.60207954
28.04164595
27.4867722
26.93972484
26.40148316
25.87356427
25.35652603
24.85135121
24.35831673
23.87811962
23.41080637
22.95695452
22.51650405
22.09007708
21.67756735
21.27966291
20.89627804
20.52804028
20.17493809
19.83736527
19.51518778
19.208442
18.91667398
18.6393709
18.37554771
18.12412621
17.88366485
17.65268569
17.42945898
17.21242026
16.99975384
16.79046453
16.5844785
16.38085677
16.17539327
)
;

boundaryField
{
    front_top
    {
        type            wedge;
    }
    front_middle
    {
        type            wedge;
    }
    front_bottom
    {
        type            wedge;
    }
    back_top
    {
        type            wedge;
    }
    back_middle
    {
        type            wedge;
    }
    back_bottom
    {
        type            wedge;
    }
    axis_top
    {
        type            symmetryPlane;
    }
    axis_middle
    {
        type            symmetryPlane;
    }
    axis_bottom
    {
        type            symmetryPlane;
    }
    wall_top
    {
        type            calculated;
        value           nonuniform List<scalar> 
23
(
87.60957345
84.5186858
81.2724433
77.92913628
74.51640415
71.04847686
67.5353669
63.9874479
60.41577175
56.83219992
53.25048369
49.68492705
46.15132765
42.66651402
39.24793396
35.91275989
32.67779206
29.55791437
26.56652014
23.71483949
21.01179482
18.46295009
16.07108975
)
;
    }
    wall_middle
    {
        type            calculated;
        value           nonuniform 0();
    }
    wall_bottom
    {
        type            calculated;
        value           nonuniform 0();
    }
    inlet
    {
        type            calculated;
        value           nonuniform 0();
    }
    outlet
    {
        type            calculated;
        value           nonuniform 0();
    }
    procBoundary6to5
    {
        type            processor;
        value           nonuniform List<scalar> 
51
(
34.86671807
34.69149894
34.69149894
31.1800912
30.9018856
30.63786153
30.32280181
29.96059072
29.56131509
29.13094917
28.67515884
28.19972851
27.70914126
27.20763385
26.69935404
26.18706264
25.67384413
25.16184412
24.6530456
24.14906064
23.65108089
23.16028443
22.67734124
22.20308365
21.73795099
21.28249966
20.83708033
20.40208948
19.97797818
19.56507556
19.16401085
18.77507207
18.39911738
18.03644545
17.687913
17.35384893
17.03488983
16.73127337
16.44318271
16.17047814
15.91276068
15.6694008
15.4393748
15.22153368
15.01438001
14.81640144
14.62597238
14.44192283
14.26383678
14.08963391
13.91987598
)
;
    }
    procBoundary6to7
    {
        type            processor;
        value           nonuniform List<scalar> 
51
(
440.9480394
439.5700466
437.0093847
432.8453278
427.6041378
421.3552057
414.22074
406.3235522
397.7819346
388.7119957
379.2313913
369.4247305
359.3791046
349.1888376
338.9077097
328.6046313
318.3314219
308.126817
298.0418628
273.5151101
273.5151101
264.5593547
255.7663647
247.1573703
238.7381374
230.5250024
222.5181981
214.729814
207.1572314
199.8074458
192.6763031
185.7669784
179.0746238
172.5992913
166.3365056
160.283399
154.4356544
148.7891504
143.3402614
138.0840211
133.0173975
128.135413
123.4361339
118.9153922
114.5715559
110.4012673
106.4031145
102.5747349
98.91761654
95.43695569
92.07897172
)
;
    }
}


// ************************************************************************* //
