/*--------------------------------*- C++ -*----------------------------------*\
  =========                 |
  \\      /  F ield         | OpenFOAM: The Open Source CFD Toolbox
   \\    /   O peration     | Website:  https://openfoam.org
    \\  /    A nd           | Version:  7
     \\/     M anipulation  |
\*---------------------------------------------------------------------------*/
FoamFile
{
    version     2.0;
    format      ascii;
    class       volScalarField;
    location    "0.0003";
    object      p;
}
// * * * * * * * * * * * * * * * * * * * * * * * * * * * * * * * * * * * * * //

dimensions      [1 -1 -2 0 0 0 0];

internalField   nonuniform List<scalar> 
1167
(
1459884.826
1460405.32
1460200.792
1460049.014
1459893.348
1459708.107
1459500.539
1459275.828
1459034.815
1458781.828
1458526.089
1458266.687
1458004.146
1457748.28
1457495.379
1457248.775
1457011.69
1456780.55
1456562.187
1460220.583
1460886.085
1460641.467
1460474.485
1460311.147
1460118.488
1459900.042
1459660.303
1459403.365
1459138.229
1458867.521
1458589.777
1458313.915
1458041.836
1457771.215
1457510.707
1457256.185
1457011.414
1456776.77
1456551.49
1456338.366
1456134.144
1455942.706
1455759.625
1455588.753
1455425.34
1455273.02
1455127.541
1454991.77
1454861.941
1454740.43
1454624.066
1454514.469
1454409.393
1454309.913
1454214.338
1454123.211
1454035.477
1453951.41
1453870.373
1453792.435
1453717.188
1453644.764
1453574.905
1453507.767
1453443.124
1453381.518
1453322.024
1453262.715
1453203.823
1460480.486
1461306.093
1461020.249
1460841.282
1460674.142
1460473.353
1460243.315
1459990.707
1459724.232
1459448.508
1459163.149
1458873.814
1458587.254
1458300.789
1458019.935
1457746.861
1457479.36
1457224.031
1456976.246
1456741.091
1456515.483
1456301.79
1456098.507
1455906.202
1455723.916
1455551.472
1455388.201
1455233.792
1455087.238
1454948.481
1454816.225
1454690.624
1454570.137
1454455.446
1454344.713
1454238.854
1454135.9
1454037.113
1453940.528
1453847.587
1453756.336
1453668.319
1453581.913
1453498.546
1453416.82
1453338.119
1453261.662
1453187.847
1453112.593
1453037.827
1460650.477
1461650.15
1461321.392
1461131.013
1460959.501
1460750.924
1460511.664
1460252.729
1459980.262
1459694.991
1459400.193
1459105.326
1458809.774
1458514.81
1458227.854
1457945.667
1457672.696
1457409.516
1457155.408
1456913.894
1456681.084
1456461.792
1456251.255
1456053.621
1455864.128
1455686.364
1455516.004
1455355.996
1455202.179
1455057.311
1454917.439
1454784.88
1454656.201
1454533.552
1454413.764
1454298.699
1454185.599
1454076.227
1453968.332
1453863.435
1453759.633
1453658.42
1453558.296
1453460.698
1453364.198
1453270.468
1453178.586
1453089.274
1452997.051
1452904.956
1460711.813
1461897.538
1461521.959
1461320.359
1461145.391
1460931.998
1460689.847
1460429.112
1460152.299
1459861.178
1459565.135
1459267.543
1458967.352
1458671.946
1458382.32
1458097.768
1457824.41
1457558.551
1457304.748
1457061.012
1456828.671
1456607.653
1456397.103
1456197.714
1456007.556
1455827.696
1455655.949
1455493.109
1455337.044
1455188.349
1455045.086
1454907.463
1454774.122
1454644.951
1454518.931
1454395.686
1454274.675
1454155.454
1454037.828
1453921.333
1453806.009
1453691.622
1453578.363
1453466.143
1453355.137
1453245.726
1453138.367
1453032.66
1452922.953
1452812.069
1460641.667
1462025.526
1461599.719
1461387.442
1461213.083
1461000.64
1460760.092
1460499.276
1460220.802
1459932.21
1459639.738
1459343.273
1459046.991
1458756.5
1458469.743
1458191.67
1457922.862
1457662.661
1457414.914
1457175.709
1456949.9
1456733.228
1456528.821
1456333.198
1456148.315
1455971.423
1455803.75
1455642.64
1455489.196
1455340.747
1455198.265
1455059.152
1454924.605
1454791.948
1454662.444
1454533.515
1454406.676
1454279.544
1454153.666
1454026.976
1453901.079
1453774.391
1453648.476
1453521.997
1453396.547
1453271.297
1453148.16
1453025.423
1452897.541
1452766.46
1460418.185
1462011.695
1461534.224
1461315.135
1461146.376
1460938.613
1460701.618
1460443.675
1460171.119
1459891.887
1459607.134
1459318.489
1459034.034
1458753.723
1458478.385
1458213.411
1457955.946
1457709.945
1457474.284
1457249.262
1457035.917
1456832.097
1456639.778
1456455.51
1456281.711
1456114.569
1455956.321
1455803.106
1455657.02
1455514.323
1455376.729
1455241.001
1455108.616
1454976.723
1454846.452
1454715.497
1454584.894
1454452.811
1454320.25
1454185.733
1454050.402
1453913.171
1453775.284
1453635.763
1453496.06
1453355.504
1453216.3
1453076.456
1452929.694
1452777.641
1460025.105
1461839.836
1461309.74
1461087.32
1460926.735
1460725.794
1460495.45
1460247.042
1459988.362
1459722.375
1459450.62
1459179.473
1458912.773
1458649.53
1458395.046
1458149.71
1457912.932
1457688.471
1457472.875
1457269.992
1457076.537
1456894.054
1456720.594
1456556.184
1456399.681
1456250.353
1456107.23
1455969.318
1455835.743
1455705.394
1455577.362
1455450.824
1455324.786
1455198.596
1455071.235
1454942.406
1454811.205
1454677.643
1454540.962
1454401.428
1454258.647
1454113.059
1453964.552
1453813.591
1453660.422
1453505.709
1453350.737
1453194.309
1453028.363
1452855.247
1459448.403
1461494.615
1460909.644
1460685.372
1460535.625
1460344.508
1460126.639
1459895.374
1459654.967
1459407.452
1459157.211
1458910.903
1458668.394
1458431.851
1458205.712
1457987.815
1457781.486
1457586.111
1457401.06
1457228.005
1457063.625
1456910.456
1456764.475
1456627.869
1456496.781
1456372.924
1456252.523
1456137.091
1456023.055
1455911.633
1455799.586
1455688.116
1455574.187
1455458.863
1455339.504
1455217.243
1455089.842
1454958.535
1454821.438
1454679.951
1454532.703
1454381.171
1454224.311
1454063.695
1453898.583
1453730.859
1453560.87
1453388.42
1453203.229
1453009.063
1458671.651
1460958.611
1460317.08
1460093.527
1459957.428
1459781.41
1459582.966
1459373.784
1459156.747
1458934.711
1458714.906
1458499.68
1458289.048
1458088.542
1457898.192
1457717.536
1457549.954
1457392.379
1457247.276
1457112.353
1456987.532
1456871.917
1456763.755
1456663.018
1456567.166
1456476.467
1456388.014
1456302.31
1456216.364
1456130.613
1456042.385
1455952.089
1455857.307
1455758.365
1455653.28
1455542.47
1455424.373
1455299.553
1455166.801
1455026.972
1454879.244
1454724.712
1454562.738
1454394.724
1454220.074
1454040.758
1453857.254
1453669.593
1453465.792
1453250.667
1457683.06
1460219.072
1459518.967
1459298.546
1459181.356
1459026.483
1458852.275
1458669.871
1458481.882
1458294.227
1458111.376
1457934.027
1457765.292
1457608.54
1457462.176
1457328.945
1457208.411
1457099.132
1457002.764
1456915.648
1456839.702
1456771.003
1456710.291
1456654.542
1456603.557
1456554.825
1456507.752
1456460.183
1456411.278
1456359.149
1456303.092
1456241.37
1456173.382
1456097.582
1456013.669
1455920.378
1455817.71
1455704.7
1455581.636
1455448.03
1455304.385
1455150.597
1454987.293
1454814.793
1454633.704
1454445.026
1454250.243
1454048.824
1453827.798
1453592.182
1456471.882
1459264.869
1458505.867
1458293.111
1458199.918
1458070.298
1457924.631
1457774.155
1457623.256
1457477.356
1457338.156
1457206.868
1457088.792
1456983.569
1456890.976
1456813.787
1456749.193
1456698.422
1456659.728
1456631.587
1456613.624
1456602.524
1456598.706
1456598.242
1456601.629
1456604.927
1456608.596
1456608.867
1456606.066
1456596.812
1456581.495
1456557.029
1456523.812
1456479.185
1456423.737
1456355.259
1456274.569
1456179.88
1456072.291
1455950.566
1455815.995
1455667.732
1455507.288
1455334.161
1455149.966
1454954.776
1454751.196
1454537.864
1454301.328
1454046.22
1455033.902
1458091.472
1457273.315
1457072.374
1457006.385
1456905.954
1456793.692
1456682.119
1456576.132
1456478.044
1456389.34
1456313.855
1456253.923
1456208.396
1456179.55
1456166.864
1456168.298
1456185.157
1456213.745
1456254.521
1456304.112
1456361.401
1456424.059
1456489.988
1456557.397
1456623.738
1456687.684
1456746.499
1456799.124
1456843.029
1456877.393
1456899.903
1456909.926
1456905.549
1456886.449
1456851.138
1456799.632
1456730.835
1456645.211
1456542.08
1456422.274
1456285.364
1456132.621
1455963.724
1455780.226
1455582.241
1455372.757
1455150.134
1454900.092
1454627.133
1453368.169
1456696.902
1455818.38
1455632.176
1455597.27
1455530.417
1455457.57
1455392.403
1455337.27
1455293.605
1455263.828
1455252.156
1455258.127
1455281.788
1455325.171
1455385.634
1455463.401
1455556.885
1455663.411
1455782.547
1455910.024
1456045.686
1456185.178
1456327.872
1456469.68
1456609.656
1456744.225
1456872.187
1456990.456
1457097.937
1457191.924
1457271.454
1457334.233
1457379.635
1457405.834
1457412.576
1457398.509
1457363.751
1457307.56
1457230.35
1457131.874
1457012.759
1456873.296
1456714.203
1456536.09
1456339.867
1456128.128
1455899.647
1455638.669
1455350.424
1451474.267
1455080.044
1454140.656
1453972.889
1453972.949
1453944.818
1453918.159
1453905.377
1453907.394
1453925.312
1453963.293
1454022.642
1454102.509
1454204.792
1454328.686
1454471.789
1454634.865
1454814.149
1455008.721
1455215.541
1455431.911
1455655.67
1455883.116
1456112.601
1456339.911
1456563.868
1456780.145
1456987.741
1457182.694
1457364.193
1457528.651
1457675.445
1457801.496
1457906.538
1457988.046
1458046.157
1458078.888
1458086.817
1458068.605
1458025.171
1457955.655
1457861.311
1457741.728
1457598.414
1457431.127
1457241.587
1457031.775
1456801.227
1456532.366
1456232.04
1449356.62
1453244.707
1452243.941
1452098.133
1452137.735
1452154.171
1452179.401
1452224.7
1452290.108
1452378.002
1452491.054
1452628.929
1452791.804
1452980.848
1453193.494
1453429.199
1453686.257
1453961.15
1454253.01
1454557.224
1454872.406
1455194.138
1455520.102
1455846.473
1456170.436
1456488.667
1456798.121
1457095.901
1457379.111
1457645.267
1457891.7
1458116.34
1458316.951
1458491.981
1458639.698
1458759.104
1458848.973
1458908.949
1458938.315
1458937.262
1458905.427
1458843.562
1458751.567
1458630.646
1458480.58
1458303.184
1458100.326
1457871.897
1457598.901
1457289.995
1447022.216
1451197.241
1450134.665
1450015.451
1450099.537
1450165.509
1450247.803
1450357.1
1450493.236
1450658.778
1450854.014
1451078.214
1451332.851
1451616.628
1451926.928
1452263.838
1452623.479
1453003.875
1453401.969
1453813.896
1454237.307
1454667.278
1455101.734
1455535.547
1455966.647
1456390.025
1456803.589
1457202.719
1457585.446
1457947.625
1458287.467
1458601.378
1458887.971
1459144.279
1459369.411
1459561.051
1459718.836
1459841.231
1459928.323
1459979.232
1459994.408
1459973.612
1459917.548
1459826.457
1459700.894
1459541.883
1459351.916
1459130.396
1458857.871
1458544.36
1444481.24
1448947.72
1447823.572
1447735.411
1447868.048
1447988.03
1448132.807
1448312.419
1448526.968
1448776.762
1449061.197
1449380.393
1449734.49
1450120.811
1450538.179
1450984.533
1451455.787
1451950.513
1452463.844
1452993.119
1453533.946
1454082.639
1454635.237
1455187.484
1455735.833
1456275.763
1456804.044
1457316.281
1457809.6
1458279.86
1458724.547
1459139.983
1459524.169
1459874.015
1460188.127
1460464.035
1460701.046
1460897.383
1461052.992
1461166.619
1461238.832
1461268.824
1461257.665
1461204.875
1461111.549
1460977.923
1460807.139
1460597.812
1460330.815
1460017.306
1441747.284
1446509.002
1445323.357
1445269.92
1445454.962
1445633.638
1445846.247
1446103.154
1446402.601
1446743.433
1447124.563
1447546.72
1448007.829
1448505.043
1449037.611
1449601.449
1450193.772
1450811.266
1451449.266
1452104.907
1452772.709
1453449.749
1454130.416
1454811.4
1455487.424
1456154.888
1456808.887
1457445.88
1458061.331
1458651.872
1459213.408
1459742.98
1460237.076
1460693.29
1461108.777
1461481.757
1461810.206
1462092.979
1462328.79
1462517.034
1462657.144
1462748.96
1462792.517
1462787.79
1462735.161
1462635.058
1462490.368
1462299.398
1462043.322
1461735.094
1438835.183
1443895.074
1442647.697
1442633.034
1442874.371
1443116.126
1443402.678
1443743.097
1444133.481
1444571.794
1445057.628
1445589.808
1446165.219
1446782.018
1447437.499
1448127.172
1448848.898
1449597.538
1450369.51
1451160.204
1451964.999
1452779.582
1453598.723
1454418.371
1455233.012
1456038.723
1456830.05
1457603.282
1458353.161
1459076.194
1459767.517
1460424.044
1461041.481
1461617.293
1462147.84
1462631.285
1463064.79
1463447.225
1463776.428
1464051.995
1464272.363
1464437.775
1464547.163
1464600.983
1464598.626
1464540.997
1464430.03
1464264.487
1464025.169
1463728.543
1435761.282
1441121.891
1439812.764
1439840.767
1440141.878
1440451.678
1440817.773
1441246.988
1441734.141
1442276.831
1442874.278
1443523.349
1444220.729
1444964.583
1445750.403
1446574.713
1447433.706
1448322.18
1449236.682
1450171.385
1451122.457
1452084.065
1453051.895
1454020.323
1454984.7
1455939.577
1456880.287
1457801.57
1458698.842
1459567.084
1460402.022
1461199.038
1461954.355
1462663.899
1463324.513
1463932.887
1464486.584
1464983.044
1465420.505
1465797.201
1466111.993
1466363.806
1466551.89
1466675.74
1466734.792
1466729.398
1466661.159
1466528.553
1466312.808
1466034.621
1432543.805
1438206.936
1436835.877
1436910.123
1437274.928
1437657.336
1438107.398
1438630.515
1439220.131
1439873.946
1440589.086
1441361.527
1442188.515
1443066.359
1443990.072
1444956.662
1445960.627
1446997.699
1448062.875
1449150.978
1450257.212
1451375.838
1452502.184
1453630.211
1454755.204
1455871.101
1456973.199
1458055.527
1459113.361
1460140.982
1461133.824
1462086.586
1462995.04
1463854.437
1464661.102
1465411.045
1466101.234
1466728.412
1467290.278
1467784.326
1468208.994
1468562.329
1468843.35
1469050.665
1469183.636
1469241.711
1469226.504
1469135.161
1468950.958
1468698.504
1429201.442
1435168.233
1433735.239
1433859.641
1434291.499
1434749.918
1435288.124
1435909.694
1436607.598
1437378.034
1438216.585
1439119.019
1440082.017
1441100.322
1442169.7
1443285.586
1444442.362
1445635.91
1446860.086
1448110.453
1449380.901
1450666.568
1451961.432
1453260.301
1454557.136
1455846.661
1457122.793
1458380.215
1459612.792
1460815.326
1461981.788
1463107.194
1464185.884
1465213.196
1466184.095
1467094.436
1467939.857
1468716.828
1469421.784
1470051.894
1470604.298
1471076.731
1471467.05
1471773.572
1471994.657
1472129.577
1472178.808
1472138.954
1471995.018
1471777.352
1430529.831
1430707.853
1431209.08
1431746.615
1432376.622
1433101.197
1433912.255
1434804.061
1435771.249
1436809.75
1437914.418
1439079.553
1440301.077
1441572.917
1442890.242
1444247.496
1445639.22
1447060.088
1448504.246
1449966.439
1451440.578
1452921.247
1454402.283
1455878.089
1457342.454
1458789.5
1460213.05
1461607.023
1462965.412
1464282.007
1465551.044
1466766.614
1467923.287
1469015.634
1470038.657
1470987.609
1471858.117
1472646.139
1473347.86
1473959.996
1474479.437
1474903.636
1475230.117
1475457.488
1475585.118
1475608.539
1475515.576
1475343.216
)
;

boundaryField
{
    front_top
    {
        type            wedge;
    }
    front_middle
    {
        type            wedge;
    }
    front_bottom
    {
        type            wedge;
    }
    back_top
    {
        type            wedge;
    }
    back_middle
    {
        type            wedge;
    }
    back_bottom
    {
        type            wedge;
    }
    axis_top
    {
        type            symmetryPlane;
    }
    axis_middle
    {
        type            symmetryPlane;
    }
    axis_bottom
    {
        type            symmetryPlane;
    }
    wall_top
    {
        type            fixedFluxPressure;
        gradient        uniform 0;
        value           nonuniform List<scalar> 
23
(
1453203.823
1453037.827
1452904.956
1452812.069
1452766.46
1452777.641
1452855.247
1453009.063
1453250.667
1453592.182
1454046.22
1454627.133
1455350.424
1456232.04
1457289.995
1458544.36
1460017.306
1461735.094
1463728.543
1466034.621
1468698.504
1471777.352
1475343.216
)
;
    }
    wall_middle
    {
        type            fixedFluxPressure;
        gradient        nonuniform 0();
        value           nonuniform 0();
    }
    wall_bottom
    {
        type            fixedFluxPressure;
        gradient        nonuniform 0();
        value           nonuniform 0();
    }
    inlet
    {
        type            zeroGradient;
    }
    outlet
    {
        type            fixedValue;
        value           nonuniform 0();
    }
    procBoundary6to5
    {
        type            processor;
        value           nonuniform List<scalar> 
51
(
1425753.761
1432024.789
1432024.789
1427238.078
1427472.462
1428045.17
1428664.422
1429389.515
1430221.15
1431149.016
1432166.167
1433267.038
1434446.358
1435697.682
1437015.778
1438395.001
1439829.278
1441313.735
1442841.875
1444408.923
1446008.476
1447635.55
1449283.808
1450948.044
1452621.871
1454299.851
1455975.53
1457643.094
1459295.95
1460927.96
1462532.408
1464102.822
1465632.47
1467114.688
1468542.877
1469910.516
1471211.095
1472438.545
1473586.706
1474650.082
1475622.948
1476500.45
1477277.714
1477950.653
1478515.251
1478968.284
1479307.178
1479530.402
1479631.531
1479602.559
1479488.413
)
;
    }
    procBoundary6to7
    {
        type            processor;
        value           nonuniform List<scalar> 
51
(
1459494.033
1459882.541
1459713.667
1459578.299
1459435.151
1459261.964
1459065.39
1458854.253
1458631.761
1458397.042
1458155.902
1457915.895
1457673.495
1457433.632
1457201.303
1456971.59
1456752.753
1456540.968
1456339.079
1456351.061
1456351.061
1456152.713
1455962.925
1455785.066
1455616.133
1455458.128
1455308.356
1455168.434
1455035.89
1454912.29
1454794.81
1454685.424
1454580.977
1454483.647
1454390.232
1454303.245
1454219.441
1454141.045
1454065.278
1453994.237
1453925.48
1453860.936
1453798.367
1453739.599
1453682.78
1453629.519
1453578.187
1453530.391
1453484.285
1453439.47
1453395.338
)
;
    }
}


// ************************************************************************* //
