/*--------------------------------*- C++ -*----------------------------------*\
  =========                 |
  \\      /  F ield         | OpenFOAM: The Open Source CFD Toolbox
   \\    /   O peration     | Website:  https://openfoam.org
    \\  /    A nd           | Version:  7
     \\/     M anipulation  |
\*---------------------------------------------------------------------------*/
FoamFile
{
    version     2.0;
    format      ascii;
    class       volScalarField;
    location    "0.0003";
    object      rho;
}
// * * * * * * * * * * * * * * * * * * * * * * * * * * * * * * * * * * * * * //

dimensions      [1 -3 0 0 0 0 0];

internalField   nonuniform List<scalar> 
1167
(
953.7646974
953.7395259
953.6855814
953.6059064
953.5022502
953.3763284
953.2294617
953.0630058
952.8782745
952.6767138
952.4594626
952.2275739
951.9823672
951.7248405
951.4558425
951.1767069
950.8879792
950.5907603
950.2857987
953.6045844
953.5794874
953.5257026
953.4463305
953.3431371
953.2176039
953.0711698
952.9052045
952.7211424
952.5202753
952.3036663
952.0725468
951.828215
951.5714487
951.3034485
951.0251471
950.737315
950.4411432
950.137085
949.8262879
949.5091892
949.1867331
948.8593942
948.5279359
948.1928243
947.8547267
947.5140712
947.1714507
946.8272036
946.4819034
946.1357876
945.7894145
945.4429404
945.0969278
944.7514175
944.4069705
944.0635517
943.7217344
943.381404
943.0431278
942.7067221
942.372755
942.0410141
941.7120147
941.3855282
941.0620361
940.74133
940.4238273
940.1093329
939.7981561
953.4474757
953.4224876
953.3689361
953.2898412
953.1869389
953.06176
952.9157395
952.7503263
952.5669224
952.3666255
952.1506327
951.9204008
951.6767632
951.4207657
951.1537029
950.8761939
950.5893932
950.29407
949.9910261
949.681192
949.3650787
949.0436918
948.7173289
948.3869992
948.052874
947.7159442
947.376306
947.0348604
946.6916581
946.3475289
946.0024864
945.6572646
945.3118985
944.9670105
944.6226258
944.2792704
943.9369935
943.5962386
943.2570536
942.9198073
942.5845387
942.2515814
941.9209526
941.5929406
941.2675292
940.9450178
940.6253401
940.3088161
939.9952747
939.6850826
953.2934037
953.2684825
953.2150744
953.1361913
953.033565
952.9087224
952.7631593
952.598344
952.4154361
952.2156826
952.0004688
951.7708971
951.5279232
951.2728337
951.0064999
950.7298059
950.4439468
950.1494408
949.8474432
949.5384756
949.2234491
948.9029659
948.5777134
948.2483169
947.9153298
947.579367
947.2408844
946.900424
946.558395
946.2152622
945.8713965
945.527187
945.1830035
944.8391285
944.4959175
944.1535751
943.8124665
943.4727195
943.13469
942.7984368
942.4643084
942.1323343
941.8028204
941.475768
941.1514477
940.8298774
940.5112687
940.1956546
939.8831405
939.5738326
953.1421254
953.1172668
953.0639933
952.9853093
952.8829424
952.7584872
952.6134359
952.4490409
952.2666012
952.0674518
951.8529244
951.6239449
951.3816936
951.1273797
950.8617401
950.5859755
950.3008712
950.0072654
949.70616
949.3980468
949.0840499
948.764439
948.4402636
948.1117721
947.7798942
947.444873
947.1075186
946.7680203
946.4271401
946.0849839
945.7422749
945.3990609
945.0560414
944.7131647
944.3711116
944.0297703
943.6898155
943.3510785
943.0141782
942.6789277
942.3459093
942.0149239
941.6864983
941.3603978
941.0371558
940.7165165
940.398964
940.0842488
939.7727484
939.4643118
952.9935714
952.9687709
952.9156221
952.8371227
952.7351012
952.6110453
952.466338
952.3023348
952.1203433
951.9218822
951.707872
951.4794484
951.2379915
950.9843004
950.7193858
950.4444399
950.1600524
949.8673901
949.5670569
949.259935
948.9467551
948.6281304
948.3048482
947.9773476
947.6464348
947.3124258
946.976073
946.6376162
946.2977561
945.9566696
945.6149874
945.2728782
944.9308772
944.5891248
944.2480763
943.9078781
943.5689127
943.2313123
942.8953919
942.5612667
942.2292219
941.8993405
941.5718678
941.246849
940.9245422
940.6049388
940.2883154
939.9745579
939.6639923
939.3564307
952.8476722
952.8229246
952.7699443
952.6917246
952.5899633
952.466176
952.3217841
952.1581408
951.9767679
951.7787461
951.5652139
951.3374601
951.0965951
950.843484
950.5793806
950.3050784
950.0214625
949.7296017
949.4299997
949.1238257
948.8114242
948.4937831
948.1713214
947.844846
947.5148003
947.1818472
946.8463931
946.5090238
946.1700877
945.8301065
945.4893772
945.1483917
944.8073565
944.4667309
944.1266593
943.7875925
943.4496079
943.1131344
942.7781874
942.4451803
942.1141038
941.7853193
941.4587944
941.1348507
940.8134735
940.4949221
940.1791957
939.8664464
939.5567479
939.2501581
952.7045053
952.6798397
952.6269808
952.5489108
952.4473455
952.3237985
952.1796891
952.0165362
951.8355689
951.6379438
951.4248763
951.1977547
950.9573879
950.7048982
950.4414644
950.1677574
949.8849609
949.5937561
949.2950047
948.9895637
948.6779775
948.3611959
948.0395466
947.7140288
947.3848196
947.052885
946.7183007
946.38199
946.0439545
945.7050563
945.3652679
945.0253811
944.6853158
944.3457853
944.00671
943.6687353
943.3317617
942.9963698
942.6624321
942.3304988
942.0004196
941.6726948
941.3471328
941.0242427
940.7037919
940.3862868
940.0714527
939.7597043
939.4508659
939.1452373
952.5639035
952.539278
952.4865056
952.4085642
952.3071677
952.183828
952.0400951
951.8772998
951.6966457
951.4993682
951.2868764
951.0601656
950.8202422
950.5684215
950.3054951
950.0324092
949.7502925
949.4596895
949.1617565
948.8569731
948.5462515
948.2301803
947.9094483
947.5846997
947.2564527
946.9253334
946.5917514
946.2563014
945.9193027
945.5813052
945.2425902
944.9036283
944.5646529
944.2260708
943.8881024
943.5510918
943.2152315
942.8808059
942.5479806
942.2170159
941.8880352
941.5612639
941.2367822
940.9148303
940.5954302
940.2788406
939.9649763
939.6541463
939.3461902
939.0414868
952.4257384
952.4011452
952.3484425
952.2706053
952.169346
952.0462982
951.9028494
951.7402834
951.5598895
951.3630217
951.1509219
950.9245597
950.6851338
950.433797
950.171313
949.8988904
949.6172801
949.3273357
949.0300354
948.7258649
948.4159333
948.1005184
947.7806516
947.4566247
947.1292933
946.7989479
946.466335
946.1317062
945.7957173
945.4585917
945.1209261
944.78287
944.4449679
944.1073219
943.7704498
943.4343962
943.0996433
942.7661817
942.4344674
942.1044722
941.7765905
941.4507754
941.127376
940.8063651
940.4880256
940.172344
939.8594939
939.5495376
939.2425529
938.9386765
952.2899349
952.2653649
952.2127127
952.1349513
952.0339336
951.9110725
951.7677713
951.6053778
951.4252133
951.2287271
951.0168754
950.7907893
950.5518571
950.3008551
950.0388096
949.7668992
949.4857196
949.1964224
948.899616
948.5961486
948.2867746
947.9720747
947.6528905
947.329603
947.0030563
946.6734903
946.341745
946.0079421
945.6728833
945.3366419
944.9999535
944.6628271
944.3259327
943.9892598
943.6534209
943.3183705
942.9846646
942.6522183
942.3215633
941.9925813
941.6657592
941.3409306
941.018594
940.6985301
940.3812556
940.066487
939.7546545
939.4455741
939.1395602
938.8365085
952.1564158
952.1318583
952.0793068
952.0017047
951.9007545
951.7779649
951.6347518
951.4724645
951.2926123
951.0962698
950.8845843
950.6588438
950.4201602
950.1694034
949.9078186
949.6362152
949.3554567
949.0666337
948.7702336
948.4673824
948.1584841
947.8444739
947.5258459
947.2033168
946.8773979
946.5486642
946.2176148
945.8847063
945.5504164
945.2151332
944.8792711
944.5431498
944.2071346
943.8715122
943.5365953
943.2026276
942.86987
942.5385275
942.208843
941.8809685
941.5551171
941.2313904
940.910019
940.591041
940.2747066
939.9609436
939.6500536
939.3418871
939.0368148
938.7345884
952.0252545
952.0007341
951.9481899
951.8705904
951.769646
951.6468676
951.5036731
951.3415632
951.1617845
950.9654941
950.7538985
950.5284119
950.2898409
950.0392947
949.7779888
949.5065838
949.2262379
948.9376783
948.6417073
948.3392372
948.0307568
947.7172979
947.3991336
947.0772739
946.7518994
946.4239199
946.0934948
945.7614158
945.4278356
945.0934572
944.7583745
944.4232181
944.0880479
943.7534481
943.4194307
943.0865289
942.7547079
942.4244634
942.0957469
941.7689816
941.4441054
941.1214888
940.801092
940.4832134
940.1678281
939.8551222
939.5451478
939.2379927
938.9337828
938.6324764
951.8962515
951.8717164
951.8191419
951.7414995
951.6405025
951.5176646
951.3745098
951.2124143
951.0325729
950.8362267
950.6247689
950.3992521
950.1606696
949.9103167
949.649048
949.3777593
949.0976424
948.8092145
948.5135861
948.2113229
947.9032678
947.5901084
947.2724397
946.9509854
946.6261664
946.29872
945.9689206
945.6374901
945.3046233
944.9709903
944.6367001
944.3023718
943.9680737
943.6343765
943.3012971
942.9693569
942.6385209
942.3092917
941.9815881
941.6558735
941.3320097
941.0104748
940.6910684
940.3742947
940.0598724
939.74824
939.4391965
939.1330686
938.8297343
938.5293912
951.7692745
951.7447078
951.692067
951.6143289
951.5132107
951.390311
951.2470953
951.0848265
950.9048042
950.7083595
950.496817
950.2711273
950.0324662
949.7820706
949.5206824
949.2494806
948.9692986
948.680916
948.3853918
948.0831753
947.7753889
947.4623742
947.1450654
946.8238539
946.4995009
946.1724003
945.8431685
945.5121985
945.1800077
944.846939
944.5134208
944.1797594
943.8463301
943.5133939
943.181267
942.8501647
942.5203523
942.1920313
941.8654008
941.5406376
941.2178813
940.8973287
940.5790485
940.2632574
939.9499088
939.6392744
939.331225
939.0261014
938.7236619
938.4243023
951.6442312
951.6196131
951.5668641
951.4889685
951.3877333
951.2646865
951.1211975
950.9586288
950.7782861
950.5816863
950.3698022
950.1437694
949.9049503
949.6542279
949.3925581
949.1212184
948.840773
948.552333
948.2566115
947.9543867
947.6465243
947.3335244
947.016309
946.6951719
946.3710723
946.0441346
945.7152972
945.3846184
945.0529452
944.7202882
944.3874028
944.0542763
943.7215981
943.3893129
943.0580441
942.7276937
942.3988358
942.0713616
941.7457583
941.4219084
941.1002373
940.7806509
940.4634942
940.1486874
939.8364579
939.5268068
939.2198565
938.9156822
938.6142753
938.3158168
951.5210249
951.4963326
951.4434321
951.3654171
951.2639454
951.1405447
950.9966507
950.8336334
950.6529695
950.4558715
950.2434544
950.016979
949.7776844
949.5264124
949.2643811
948.9925124
948.7115932
948.4228122
948.1266401
947.824183
947.5159583
947.2028147
946.8853354
946.5641672
946.2399169
945.913062
945.5842121
945.253737
944.9222021
944.5898738
944.2572769
943.9246182
943.5923773
943.2606949
942.9300028
942.6003793
942.272239
941.9455977
941.6208341
941.2978978
940.977182
940.6585641
940.3424601
940.0286279
939.7175176
939.4088603
939.1030355
938.7998389
938.499524
938.2019865
951.3996217
951.3748636
951.3218185
951.2434898
951.1416139
951.0177272
950.8732745
950.7097176
950.5284693
950.3306487
950.1174719
949.8903871
949.6502856
949.3982157
949.1355208
948.8628313
948.5812784
948.2917032
947.9948534
947.6917517
947.382839
947.0692125
946.7511292
946.4295919
946.104848
945.7777436
945.4485386
945.117956
944.7862101
944.4539211
944.1212744
943.7888207
943.4566994
943.1253905
942.7949857
942.4659066
942.1382286
941.81229
941.4881438
941.1660601
940.8461086
940.5284777
940.213249
939.9004884
939.5903398
939.2827715
938.9779948
938.6758436
938.3766347
938.0800721
951.2799491
951.2550595
951.2017346
951.1229956
951.0205896
950.896064
950.7508983
950.586665
950.4045142
950.2057233
949.9916576
949.7635368
949.5223222
949.2692904
949.0054302
948.7315697
948.4490051
948.1582484
947.8604133
947.5561663
947.2463118
946.9315959
946.6125983
946.2901039
945.9645059
945.6365922
945.3066436
944.9754058
944.6430495
944.3102715
943.9771822
943.6444282
943.3120522
942.9806456
942.6501844
942.3212327
941.9937079
941.6681238
941.3443279
941.0228367
940.7034319
940.3866207
940.0721235
939.760342
939.4510851
939.1446289
938.8408519
938.5398949
938.2417321
937.946331
951.1617922
951.1367358
951.083056
951.0037953
950.9007144
950.7753727
950.6294339
950.4641398
950.2808226
950.0807841
949.8655389
949.6360025
949.3933369
949.1389269
948.8734888
948.5981949
948.3139874
948.0216231
947.7222513
947.4163345
947.1049972
946.7886251
946.4681839
946.1440765
945.8170958
945.4876549
945.1564248
944.823769
944.4902565
944.156211
943.822138
943.4883058
943.1551544
942.8228915
942.4919019
942.1623629
941.834583
941.5086977
941.184948
940.8634698
940.5444214
940.2279345
939.9140402
939.6029129
939.2944833
938.9889776
938.6861855
938.386427
938.0893669
937.7952825
951.0450369
951.0197735
950.9656527
950.8857429
950.7818206
950.6556188
950.5085074
950.3418792
950.1570888
949.955627
949.7386684
949.5073139
949.262918
949.0065091
948.7389952
948.4617408
948.1753276
947.8808987
947.5792318
947.2711337
946.957471
946.6388126
946.3160695
945.9896196
945.6603713
945.3285964
944.9951544
944.6602156
944.3245773
943.9883643
943.6523095
943.3164859
942.9815542
942.6475361
942.3150456
941.9840602
941.6551213
941.3281474
941.0036589
940.6815053
940.3621949
940.0454673
939.7317792
939.4208799
939.1131087
938.8082602
938.5065292
938.2077825
937.9120307
937.6192718
950.9295662
950.90405
950.8493903
950.7686863
950.6638803
950.5364468
950.3878785
950.2196013
950.0330639
949.8297049
949.6105996
949.3770041
949.1303155
948.871353
948.6013495
948.3213128
948.0320487
947.7347906
947.430048
947.1189831
946.8020734
946.4803041
946.1541669
945.8244797
945.4917335
945.1566413
944.8196291
944.4813303
944.1421133
943.8025766
943.4630123
943.1239849
942.7857018
942.4487075
942.113152
941.7795288
941.4479204
941.118779
940.7921537
940.4684288
940.1476047
939.8299451
939.5154673
939.2043181
938.8965265
938.5920884
938.2910801
937.9933058
937.6989279
937.4076109
950.8152604
950.7894397
950.7341785
950.6526312
950.5465806
950.4176316
950.2672935
950.097007
949.90841
949.7026045
949.4808494
949.2445953
948.9948768
948.7327096
948.4595061
948.1759139
947.8831317
947.5819967
947.2733638
946.9581578
946.6369956
946.310836
945.9801175
945.6457799
945.3081798
944.9681853
944.6260865
944.2826658
943.938212
943.593415
943.2485634
942.904243
942.5607529
942.2186003
941.8780878
941.5396201
941.2034969
940.8700622
940.5395872
940.2123406
939.8884983
939.5682934
939.2518111
938.9392517
938.630549
938.3259058
938.0250537
937.7282263
937.4350333
937.1456395
950.6199411
950.5372518
950.4297132
950.2989495
950.1464868
949.9739449
949.7826597
949.5738856
949.3489898
949.109348
948.8558954
948.5899397
948.31251
948.0244956
947.7271575
947.4210625
947.1074301
946.7867528
946.4600933
946.1279345
945.7911984
945.4503394
945.1062124
944.7591714
944.4100468
944.0591019
943.7071993
943.3544947
943.0018704
942.6494305
942.2979878
941.9477231
941.5993119
941.2529969
940.9093635
940.5686951
940.2314702
939.8979329
939.5684786
939.2433073
938.9227286
938.6068109
938.2957985
937.9895525
937.6882782
937.3916368
937.0998383
936.8123521
)
;

boundaryField
{
    front_top
    {
        type            wedge;
    }
    front_middle
    {
        type            wedge;
    }
    front_bottom
    {
        type            wedge;
    }
    back_top
    {
        type            wedge;
    }
    back_middle
    {
        type            wedge;
    }
    back_bottom
    {
        type            wedge;
    }
    axis_top
    {
        type            symmetryPlane;
    }
    axis_middle
    {
        type            symmetryPlane;
    }
    axis_bottom
    {
        type            symmetryPlane;
    }
    wall_top
    {
        type            calculated;
        value           nonuniform List<scalar> 
23
(
939.6430225
939.5303949
939.4195833
939.3105576
939.2032096
939.0973552
938.9928473
938.889505
938.7870992
938.6853545
938.5839547
938.4822738
938.3795917
938.2749135
938.1668521
938.0534666
937.9321527
937.7989724
937.648516
937.473195
937.2625047
937.0015786
936.6696485
)
;
    }
    wall_middle
    {
        type            calculated;
        value           nonuniform 0();
    }
    wall_bottom
    {
        type            calculated;
        value           nonuniform 0();
    }
    inlet
    {
        type            calculated;
        value           nonuniform 0();
    }
    outlet
    {
        type            calculated;
        value           nonuniform 0();
    }
    procBoundary6to5
    {
        type            processor;
        value           nonuniform List<scalar> 
51
(
950.702092
950.6759457
950.6759457
950.5064209
950.4223828
950.3130843
950.1801698
950.0252745
949.8499329
949.6554216
949.4430835
949.2144801
948.9706162
948.7126456
948.4419745
948.1593301
947.865976
947.5627416
947.2505655
946.9303465
946.6027969
946.2688146
945.928964
945.5840864
945.2347097
944.8815513
944.5251406
944.1660641
943.8049352
943.4421921
943.078555
942.7143009
942.3503027
941.9867522
941.6245009
941.2638218
940.905471
940.5498704
940.1976343
939.8492505
939.5052157
939.1660647
938.8321558
938.5039607
938.181689
937.8656296
937.5558725
937.2524733
936.9554005
936.6643549
936.3792505
)
;
    }
    procBoundary6to7
    {
        type            processor;
        value           nonuniform List<scalar> 
51
(
953.9278192
953.9025702
953.8484594
953.7685387
953.6645629
953.5380796
953.3906902
953.2237241
953.0384267
952.8360599
952.6181032
952.3855026
952.1393237
951.8809916
951.6111708
951.3309637
951.0413564
950.7430149
950.4371223
949.9738663
949.9738663
949.6558208
949.3321958
949.0038799
948.6712365
948.3351254
947.9958219
947.6541403
947.3103047
946.9650211
946.6184956
946.2713392
945.9237437
945.5762195
945.228986
944.8824316
944.5367784
944.1923207
943.8493078
943.5079482
943.1684938
942.8310773
942.4959501
942.1632112
941.8330796
941.5056202
941.1810206
940.859361
940.5407733
940.2253563
939.9131354
)
;
    }
}


// ************************************************************************* //
