/*--------------------------------*- C++ -*----------------------------------*\
  =========                 |
  \\      /  F ield         | OpenFOAM: The Open Source CFD Toolbox
   \\    /   O peration     | Website:  https://openfoam.org
    \\  /    A nd           | Version:  7
     \\/     M anipulation  |
\*---------------------------------------------------------------------------*/
FoamFile
{
    version     2.0;
    format      ascii;
    class       volScalarField;
    location    "0.0003";
    object      T;
}
// * * * * * * * * * * * * * * * * * * * * * * * * * * * * * * * * * * * * * //

dimensions      [0 0 0 1 0 0 0];

internalField   nonuniform List<scalar> 
1167
(
429.748498
429.785358
429.8643586
429.9810573
430.1329099
430.3174253
430.5326933
430.776754
431.0477102
431.3434712
431.6623958
432.0029688
432.3632823
432.741899
433.1375998
433.5484498
433.973672
434.4116692
434.8613615
429.9829941
430.0197574
430.0985505
430.2148444
430.3660696
430.5500768
430.7647821
431.0082043
431.2782683
431.5731084
431.8911944
432.2307485
432.5898931
432.9675139
433.3618737
433.7716266
434.1956646
434.6322566
435.0807575
435.5394952
436.0078437
436.4844258
436.968556
437.4591192
437.9554381
438.4565349
438.9617846
439.4703154
439.981631
440.4948847
441.0097265
441.5253283
442.0414585
442.5572788
443.0727274
443.5869651
444.1000413
444.6110958
445.1202951
445.6267851
446.130835
446.631587
447.1293525
447.6233509
448.1139175
448.6003206
449.0828648
449.5609133
450.0347507
450.5039017
430.2131667
430.2497825
430.3282596
430.4441855
430.5950336
430.7785816
430.9927503
431.2354417
431.5046272
431.7987255
432.1160088
432.4543672
432.8126056
433.1892154
433.5823197
433.9910346
434.4136849
434.8491612
435.2963037
435.7537602
436.2207955
436.6959411
437.1787728
437.6678116
438.1628162
438.6623291
439.1662169
439.6731506
440.183061
440.6947198
441.2081105
441.7221426
442.2367655
442.7510513
443.2649613
443.7777085
444.2892165
444.7988187
445.3064385
445.8115192
446.3139962
446.8133629
447.3095869
447.8022277
448.2913021
448.7763516
449.2574676
449.7341596
450.2066763
450.6744556
430.438964
430.4754936
430.5537859
430.6694385
430.8199305
431.0030444
431.2166106
431.4585021
431.7270453
432.0204388
432.3366778
432.6741722
433.0315466
433.4069377
433.7990907
434.2067309
434.6281228
435.0625267
435.5082607
435.9645754
436.4301444
436.904095
437.385426
437.8732263
438.3666884
438.8649119
439.3672295
439.8728445
440.3811554
440.891476
441.4032579
441.9159244
442.4289256
442.9418402
443.4541368
443.9655079
444.4754051
444.9836333
445.4896559
445.9933793
446.4942758
446.9922946
447.4869698
447.9782922
448.4658474
448.9496006
449.4292245
449.904661
450.3757423
450.8422993
430.6607382
430.6971875
430.7753073
430.8907046
431.0408637
431.2234669
431.4363493
431.6776997
431.9456392
432.2382367
432.553565
432.890293
433.2467145
433.6210788
434.0123291
434.4187234
434.8391296
435.2723356
435.7168853
436.1720732
436.6362574
437.1090564
437.588933
438.0755337
438.5674933
439.0644618
439.5652467
440.0695744
440.5763192
441.0853278
441.5955282
442.106851
442.6182553
443.1298177
443.6405216
444.1505316
444.6588367
445.1656853
445.6701469
446.1724962
446.6718546
447.1685145
447.6616783
448.1516913
448.637744
449.1202132
449.598362
450.0725572
450.5422212
451.0075728
430.8785869
430.9149624
430.9929236
431.108086
431.257785
431.4398588
431.652302
431.8931513
432.1605149
432.4521905
432.7668546
433.1028674
433.4582277
433.8317879
434.2220873
434.6273962
435.04687
435.4788116
435.9223514
436.3762073
436.8393181
437.3107941
437.7894856
438.2747565
438.7654241
439.2610302
439.7604675
440.263387
440.768754
441.2763096
441.7851187
442.2949322
442.8049537
443.3149732
443.8243103
444.3327442
444.8397005
445.3449773
445.8480989
446.3488875
446.8469099
447.3420351
447.8338883
448.3223942
448.8071573
449.2881824
449.7650448
450.2379078
450.7062714
451.1704097
431.0926087
431.1289178
431.2066555
431.3214427
431.4708054
431.6525401
431.8645848
432.1049786
432.371514
432.6626315
432.9766871
433.3118148
433.6664096
434.0392262
434.4284456
434.8329244
435.2513825
435.6822665
436.1248545
436.5774398
437.0395316
437.5096857
437.9872973
438.4711849
438.9607031
439.4548793
439.9531188
440.4545593
440.9586888
441.4647355
441.972261
442.4805345
442.9892491
443.4977193
444.0057287
444.5126014
445.0182191
445.5219362
446.023725
446.5229614
447.0196533
447.5132522
448.0038001
448.4908067
448.9742862
449.4538405
449.9294628
450.4009154
450.8680781
451.3308553
431.3026861
431.3388857
431.4164687
431.5310705
431.6801901
431.8616266
432.0733196
432.3130643
432.5790825
432.869703
433.1831678
433.5174636
433.8714286
434.2434387
434.6317842
435.0355022
435.4528717
435.8829103
436.3243677
436.7759976
437.2370136
437.706027
438.1825681
438.66517
439.1535819
439.646381
440.1434637
440.6434655
441.1463898
441.6509586
442.1572161
442.6639843
443.1713836
443.6783495
444.1849998
444.6903678
445.1945996
445.6968223
446.1972226
446.6949708
447.1902864
447.6824128
448.1716306
448.6571678
449.1393665
449.6174567
450.0918439
450.561895
451.0278657
451.4892955
431.509061
431.5452125
431.6226913
431.7371381
431.8860539
432.067239
432.2784409
432.5177303
432.7833658
433.0735597
433.3862684
433.7200562
434.0734704
434.4446016
434.8323102
435.235227
435.6517115
436.0809829
436.521355
436.9721388
437.4320036
437.9000949
438.3754079
438.8570012
439.344118
439.8358396
440.3315661
440.8304213
441.3319357
441.8352957
442.3400853
442.8456053
443.3515081
443.8571866
444.3623105
444.8663632
445.3690537
445.8699527
446.3688077
446.8652236
447.3590093
447.8498203
448.3375296
448.8217692
449.302498
449.7793191
450.2523528
450.7211246
451.1858684
451.6460033
431.7119189
431.7480334
431.8254322
431.9397592
432.0885164
432.2693251
432.4801703
432.7191915
432.9845208
433.2741951
433.5864163
433.919786
434.2725678
434.6430909
435.0302567
435.4323082
435.8481617
436.2765799
436.716139
437.166141
437.6249629
438.0922104
438.5663703
439.0470237
439.5329127
440.0236163
440.5180343
441.0157996
441.5159424
442.0181347
442.5214906
443.0257889
443.5302183
444.0346261
444.5382376
445.0409836
445.5421402
446.0417173
446.5390274
447.0341078
447.526361
448.0158513
448.5020475
448.9849832
449.4642258
449.9397876
450.4113989
450.8789577
451.3423381
451.8013251
431.9113665
431.9474573
432.024804
432.1390523
432.2874968
432.4680825
432.6787706
432.9176058
433.1826728
433.4718674
433.7838113
434.1168682
434.4690215
434.8391546
435.2257815
435.6271888
436.0425216
436.4701017
436.9090516
437.3581363
437.8162578
438.2825727
438.7558487
439.2355342
439.720388
440.210064
440.7033226
441.1999897
441.6988781
442.199883
442.7019111
443.2049509
443.7080032
444.2110837
444.7132755
445.2146446
445.7143559
446.212533
446.7083743
447.2020525
447.6928308
448.1809535
448.6656643
449.1472864
449.6250346
450.0993283
450.5695111
451.0358521
451.497869
451.9557104
432.1075148
432.1435973
432.2208178
432.3348638
432.4832508
432.6637818
432.8743992
433.1131451
433.3778263
433.66689
433.9786759
434.3113161
434.6632005
435.0330745
435.4191283
435.8201928
436.2350176
436.6620139
437.1004825
437.5487773
438.0063183
438.4717369
438.9443151
439.4230032
439.9070536
440.3956222
440.8879756
441.3834414
441.8813143
442.3810204
442.8819447
443.3836124
443.8854786
444.387115
444.8880527
445.3879249
445.886338
446.3829812
446.8774861
447.3696194
447.8590556
448.3456361
448.8290078
449.3091059
449.7855471
450.2584321
450.7272986
451.1923638
451.6530603
452.1097544
432.3002527
432.3362907
432.4135218
432.5275955
432.6760146
432.856579
433.0672272
433.3057776
433.5704236
433.85949
434.1712292
434.5035865
434.8554014
435.2250661
435.6108138
436.0116948
436.4260229
436.8527457
437.2906984
437.7385502
438.1955957
438.660322
439.132339
439.610161
440.0935312
440.5811079
441.0726619
441.5670224
442.0639676
442.5624539
443.062344
443.5626992
444.06343
444.5636636
445.0633805
445.5617805
446.0589127
446.5540305
447.0472023
447.537788
448.0258749
448.5109007
448.9929184
449.4714724
449.9465923
450.4179908
450.8855813
451.3492234
451.8087187
452.264122
432.4898711
432.5259404
432.6032369
432.7174045
432.8659414
433.0466424
433.2572893
433.4958833
433.7606934
434.0499205
434.3615415
434.6940336
435.0459612
435.415441
435.8012385
436.2020566
436.6161585
437.0428022
437.480366
437.9280325
438.3845706
438.8489777
439.3203858
439.7977334
440.2804069
440.7673199
441.2580728
441.7515975
442.2476096
442.7451138
443.2439506
443.7431975
444.242753
444.7417636
445.2402023
445.7372866
446.2330658
446.7267827
447.2185544
447.7076807
448.194363
448.6778772
449.1585178
449.6355193
450.1092979
450.5791854
451.0454773
451.5076727
451.9659473
452.4199949
432.6765616
432.7126871
432.7901016
432.9044406
433.0531955
433.2340356
433.4448287
433.6837418
433.9488895
434.2383396
434.5501691
434.8830058
435.2351442
435.6047868
435.9908652
436.3916632
436.8059732
437.2326652
437.6701933
438.1179114
438.5741747
439.0384924
439.5094931
439.9866084
440.4687186
440.9552475
441.4452863
441.9382563
442.4333916
442.9301852
443.4280003
443.926381
444.4247673
444.9227679
445.4199081
445.9158636
446.4102332
446.9027111
447.392994
447.8808114
448.3659478
448.8481012
449.3271617
449.8027964
450.2750681
450.74356
451.2084592
451.6692437
452.1262702
452.5789329
432.8604577
432.8966682
432.9742623
433.0888632
433.2378294
433.4189338
433.630185
433.8696032
434.1352932
434.425049
434.7374656
435.0708975
435.4233635
435.7935881
436.1801864
436.5812965
436.9961083
437.4230009
437.8609398
438.308792
438.7652919
439.2297139
439.7007042
440.1778386
440.659703
441.1461215
441.6357059
442.1283751
442.6228722
443.1191849
443.6161884
444.1139028
444.611298
445.1084558
445.6044419
446.0993999
446.5924664
447.0838005
447.5726661
448.0592347
448.5428614
449.0236813
449.5011687
449.9754367
450.446136
450.9132571
451.376608
451.8360674
452.2916403
452.7430451
433.0416996
433.0780286
433.1558658
433.270672
433.4200251
433.6016978
433.8136006
434.0537424
434.3199758
434.6105425
434.923828
435.2580019
435.6112642
435.9823999
436.3696368
436.7716376
437.1872632
437.614777
438.0535033
438.5018227
438.9589856
439.423749
439.8952612
440.3725738
440.8547959
441.341226
441.8309646
442.3234668
442.8178946
443.3138539
443.8105636
444.3077158
444.8045936
445.3009852
445.7962424
446.2902451
446.7823683
447.2725838
447.7603187
448.245643
448.72796
449.2074475
449.6834731
450.1563942
450.6255254
451.0912649
451.5530321
452.0111282
452.4651619
452.9152835
433.2203349
433.2567699
433.33484
433.4501373
433.6001239
433.7825589
433.9953396
434.236339
434.5035033
434.7952119
435.1097011
435.4448631
435.7994115
436.1718259
436.5601486
436.9634731
437.3801503
437.8089581
438.2488102
438.6982101
439.156522
439.6221331
440.094676
440.5726729
441.0557666
441.5427073
442.033115
442.525919
443.0208037
443.5168471
444.0137742
444.5107632
445.0076049
445.5035801
445.9985488
446.4918766
446.9834465
447.4727463
447.9596915
448.4438705
448.9251724
449.4033074
449.8781456
450.349581
450.8173892
451.2816104
451.7419183
452.1985559
452.6510366
453.0998003
433.3964684
433.4331063
433.5116077
433.6275385
433.7783436
433.9617664
434.1756522
434.4177107
434.6862751
434.9794914
435.2953751
435.6321559
435.9884434
436.3623802
436.7525319
437.1576998
437.5759905
438.0066686
438.4481053
438.8993319
439.359173
439.8265366
440.300576
440.7801367
441.2646442
441.7529348
442.2445975
442.7385266
443.2344719
443.7313961
444.2291361
444.726726
445.2241012
445.7203746
446.21558
446.7088683
447.2003591
447.6892766
448.1758443
448.6592799
449.1399055
449.6169508
450.0908299
450.56093
451.027532
451.4902113
451.9491438
452.4041089
452.8551379
453.302272
433.5704146
433.6073071
433.6863508
433.8030788
433.954916
434.1395876
434.3546672
434.5983517
434.8687059
435.1638396
435.4815478
435.8205089
436.1790366
436.5551128
436.9477061
437.3551086
437.7759504
438.2091336
438.6529765
439.1068128
439.5689916
440.0389559
440.5152851
440.9973921
441.484108
441.9748266
442.468555
442.9647571
443.462588
443.9615671
444.4609404
444.9603072
445.459008
445.9567299
446.4528933
446.9472286
447.4392684
447.9288037
448.4154667
448.8990466
449.3792983
449.8560163
450.3291462
450.7984175
451.2639268
451.7253245
452.1829203
452.6362223
453.0857297
453.5310148
433.7423398
433.7795463
433.8592589
433.9769719
434.1300868
434.3160723
434.532935
434.7786492
435.0512465
435.348558
435.6688802
436.0106182
436.3718006
436.7509367
437.1467115
437.5571326
437.9813633
438.4177342
438.8651138
439.3223251
439.7880999
440.261609
440.7415129
441.2272618
441.7175144
442.2118744
442.7090685
443.2088476
443.7100263
444.2124204
444.714936
445.2174635
445.7190129
446.2195491
446.7181487
447.2148409
447.7088079
448.2001664
448.6881274
449.1729103
449.6537426
450.1310082
450.6040108
451.07312
451.5378153
451.9983981
452.4545653
452.9065099
453.3542073
453.7976524
433.912415
433.9500029
434.0305291
434.1494412
434.303896
434.4917436
434.7108092
434.9590184
435.2342644
435.5344546
435.8580328
436.2031748
436.5678466
436.9508665
437.3504394
437.7651007
438.1936823
438.6343809
439.0864627
439.5482235
440.0189726
440.497263
440.982378
441.4731134
441.9687492
442.4682321
442.9709344
443.4759166
443.9826329
444.4901913
444.9981566
445.5056836
446.0124601
446.5176678
447.0210776
447.5219442
448.0201378
448.5149722
449.0063663
449.4937336
449.977065
450.455954
450.9303655
451.4000681
451.8650085
452.3251832
452.7804672
453.231147
453.676968
454.1184291
434.0808151
434.1188608
434.2002927
434.3204765
434.476804
434.6669327
434.8886638
435.1399011
435.4182585
435.7221407
436.0497207
436.3988873
436.7681423
437.1560141
437.5604421
437.9804954
438.4144243
438.8610126
439.3190151
439.78708
440.2643103
440.7492978
441.241406
441.739249
442.2423075
442.7492972
443.2597932
443.7726337
444.287392
444.8030395
445.3191458
445.8348336
446.3496535
446.862842
447.3739406
447.8823364
448.3875726
448.8891245
449.386575
449.8795107
450.3676565
450.8506503
451.3283526
451.8004497
452.2670302
452.727776
453.1830818
453.6325832
454.0768602
454.5156529
434.3686612
434.4905576
434.6491173
434.8419695
435.0668907
435.3215209
435.6039199
435.912268
436.2445786
436.5988516
436.9737366
437.3673303
437.77814
438.2048775
438.6457016
439.0997975
439.5653797
440.0417389
440.5273165
441.0214123
441.5226716
442.0304316
442.5434314
443.0611537
443.5823683
444.106689
444.6328321
445.1605681
445.6885787
446.216708
446.7437364
447.2693896
447.7926491
448.3131445
448.8299881
449.3427451
449.8506851
450.3534293
450.8503697
451.3411914
451.8254139
452.3029197
452.7733254
453.2368267
453.6930988
454.1426412
454.5851221
455.0213334
)
;

boundaryField
{
    front_top
    {
        type            wedge;
    }
    front_middle
    {
        type            wedge;
    }
    front_bottom
    {
        type            wedge;
    }
    back_top
    {
        type            wedge;
    }
    back_middle
    {
        type            wedge;
    }
    back_bottom
    {
        type            wedge;
    }
    axis_top
    {
        type            symmetryPlane;
    }
    axis_middle
    {
        type            symmetryPlane;
    }
    axis_bottom
    {
        type            symmetryPlane;
    }
    wall_top
    {
        type            convectiveRadiativeHeatFlux;
        mode            convectiveRadiative;
        kappaMethod     fluidThermo;
        kappa           none;
        alphaAni        Anialpha;
        h               uniform 165;
        Ta              constant 513.15;
        emissivityNozzle 0.95;
        emissivityFilament 0.95;
        dNozzle         2;
        dFilament       1.65;
        refValue        uniform 513.15;
        refGradient     nonuniform List<scalar> 
23
(
5598.159764
5585.359994
5572.751695
5560.337302
5548.104149
5536.027516
5524.09115
5512.274851
5500.552809
5488.910411
5477.352701
5465.750034
5454.019993
5442.048327
5429.675301
5416.676905
5402.687122
5387.303901
5369.898727
5349.581709
5325.203619
5295.010776
5256.480024
)
;
        valueFraction   nonuniform List<scalar> 
23
(
0.003183148467
0.003182935261
0.003182725537
0.00318252219
0.003182324443
0.003182129487
0.003181937049
0.003181746794
0.0031815583
0.003181380662
0.00318123716
0.003181093301
0.003180948066
0.003180800051
0.003180647296
0.003180487064
0.003180277798
0.00318004574
0.00317978365
0.003179478337
0.003179164096
0.003178820386
0.003178386051
)
;
        value           nonuniform List<scalar> 
23
(
450.7379075
450.907845
451.0750821
451.2396626
451.4017478
451.561614
451.719482
451.8756239
452.0303846
452.1841797
452.3374866
452.4912519
452.6465649
452.804932
452.9684548
453.1400745
453.3237407
453.5254267
453.7533444
454.0190202
454.3384251
454.734186
455.2379613
)
;
    }
    wall_middle
    {
        type            fixedValue;
        value           nonuniform 0();
    }
    wall_bottom
    {
        type            fixedValue;
        value           nonuniform 0();
    }
    inlet
    {
        type            fixedValue;
        value           nonuniform 0();
    }
    outlet
    {
        type            zeroGradient;
    }
    procBoundary6to5
    {
        type            processor;
        value           nonuniform List<scalar> 
51
(
434.2475795
434.2861141
434.2861141
434.5360128
434.6599273
434.8211211
435.0171939
435.2457615
435.5045903
435.791828
436.1055251
436.4434086
436.8040272
437.1857081
437.5864033
438.0050677
438.4398597
438.8895787
439.3528597
439.8283941
440.3151475
440.8118071
441.3175534
441.8311522
442.3518334
442.8785419
443.4105002
443.9468434
444.4866639
445.0293135
445.5737194
446.1194702
446.6652589
447.2107975
447.7548056
448.2968685
448.835844
449.3710891
449.9016691
450.4268375
450.9458323
451.457832
451.9622793
452.4584443
452.9459922
453.4244675
453.8937147
454.3536313
454.8042464
455.2459963
455.6789951
)
;
    }
    procBoundary6to7
    {
        type            processor;
        value           nonuniform List<scalar> 
51
(
429.5096763
429.5466373
429.6258543
429.7428728
429.8951417
430.080417
430.296378
430.5411041
430.8127993
431.1096434
431.4294969
431.771002
432.1326244
432.5123003
432.9090816
433.3213746
433.7477542
434.1872644
434.6381855
435.3216313
435.3216313
435.7912327
436.2693953
436.7548222
437.2469901
437.7446393
438.2473732
438.7539945
439.2641785
439.7768839
440.2918096
440.8080507
441.3253246
441.8428726
442.3603677
442.8772301
443.3931261
443.9076136
444.4203163
444.930918
445.4390364
445.9444669
446.4468264
446.9459595
447.4415299
447.9334322
448.4213767
448.9052337
449.3847958
449.8599056
450.3305151
)
;
    }
}


// ************************************************************************* //
