/*--------------------------------*- C++ -*----------------------------------*\
  =========                 |
  \\      /  F ield         | OpenFOAM: The Open Source CFD Toolbox
   \\    /   O peration     | Website:  https://openfoam.org
    \\  /    A nd           | Version:  7
     \\/     M anipulation  |
\*---------------------------------------------------------------------------*/
FoamFile
{
    version     2.0;
    format      ascii;
    class       volScalarField;
    location    "0.0003";
    object      thermo:mu;
}
// * * * * * * * * * * * * * * * * * * * * * * * * * * * * * * * * * * * * * //

dimensions      [1 -1 -1 0 0 0 0];

internalField   nonuniform List<scalar> 
1167
(
681466.8437
678633.9385
672607.6005
663817.3698
652575.5254
639207.9869
624007.3613
607272.3505
589292.767
570360.2809
550722.3898
530603.0078
510230.2238
489784.1537
469414.6897
449288.5808
429495.9136
410149.7541
391322.8285
663672.5953
660931.4277
655099.978
646600.4877
635736.3173
622798.0532
608081.1563
591875.8163
574473.4048
556140.9867
537111.6091
517617.6866
497877.589
478048.5176
458302.7441
438772.6383
419562.3977
400787.3234
382499.8657
364781.8299
347660.8937
331182.7242
315358.8745
300207.8817
285727.7991
271920.4773
258773.4388
246277.4903
234411.5473
223161.0695
212499.2284
202408.7046
192859.9813
183835.1207
175302.7047
167245.168
159631.4921
152445.4171
145656.8998
139250.9645
133199.2095
127488.2799
122092.258
116998.5587
112183.9151
107636.9234
103337.2576
99274.23035
95430.07863
91794.36409
646722.203
644071.7249
638432.884
630206.4158
619683.0141
607148.9914
592889.7868
577193.5068
560338.3814
542565.3834
524112.6222
505223.3174
486071.0105
466830.1459
447674.1504
428709.3068
410063.0684
391820.2969
374054.0965
356831.3578
340183.7939
324159.2467
308760.7713
294018.4103
279917.6571
266474.4488
253663.839
241489.0422
229919.6694
218950.7257
208549.2751
198704.2447
189383.6849
180572.1729
172238.9403
164366.4107
156926.4694
149900.7701
143263.5376
136996.5544
131076.4032
125486.1276
120204.424
115215.5649
110500.1826
106044.6377
101831.1446
97848.08411
94078.51106
90512.98786
630574.3248
628005.5709
622540.3748
614566.6777
604365.6496
592214.1494
578394.2214
563186.0051
546836.8042
529593.937
511703.4024
493371.3993
474776.8715
456106.6414
437498.2168
419074.1696
400960.4957
383224.2218
365957.7737
349203.1791
333013.3628
317414.6144
302429.3431
288069.6133
274338.3929
261236.1805
248753.1489
236879.6899
225599.085
214894.8955
204746.55
195133.4593
186034.1541
177424.969
169284.4699
161588.1894
154316.0525
147443.6862
140952.379
134818.625
129025.3852
123551.01
118379.6143
113491.4894
108872.1275
104504.3161
100374.5485
96467.86489
92771.20776
89272.3628
615162.4362
612670.9744
607370.0274
599635.4667
589739.4912
577956.7185
564559.549
549799.7325
533929.9198
517197.0358
499834.5266
482028.5092
463970.2342
445834.858
427746.8277
409846.4816
392229.8824
374982.5479
358185.2922
341878.0244
326123.5225
310931.1538
296340.3355
282346.2706
268968.32
256192.3876
244022.8454
232438.0333
221434.0983
210983.8201
201078.2819
191687.8708
182801.0097
174386.2576
166431.0042
158904.2634
151793.5401
145069.0276
138717.9412
132712.8664
127041.5651
121679.1389
116613.8271
111822.8713
107296.0869
103012.9163
98963.90902
95130.93092
91504.62926
88070.14048
600442.3307
598023.977
592878.4062
585370.1026
575772.5471
564341.6958
551331.9088
536996.8705
521582.2716
505342.3138
488469.9045
471163.103
453621.8322
435986.508
418397.7552
400990.9443
383847.5656
367070.5022
350715.8465
334843.9609
319496.0208
304698.4648
290477.796
276838.1854
263793.6559
251333.7357
239460.9327
228156.2516
217414.3046
207211.0881
197535.5466
188362.453
179676.4908
171452.0905
163671.8612
156311.6298
149353.1745
142773.7569
136555.2088
130676.5016
125120.6463
119868.1774
114903.2931
110208.1045
105768.822
101568.8618
97596.3626
93835.39824
90276.27806
86904.13778
586372.8112
584023.5989
579030.1402
571746.089
562424.8187
551317.5183
538674.5535
524741.9137
509775.3986
493985.6759
477578.2402
460756.5253
443694.7201
426534.6717
409428.9295
392483.4852
375796.3813
359461.7823
343529.258
328072.7402
313113.1228
298694.4637
284826.2029
271528.5638
258800.7839
246646.3747
235055.5405
224022.0171
213529.3989
203565.2638
194109.356
185146.3059
176652.8324
168612.1842
161000.2981
153800.6202
146989.095
140549.6979
134459.1478
128702.4926
123258.2061
118111.9938
113244.2128
108641.6183
104286.9752
100167.7924
96268.99534
92578.3798
89083.58575
85772.89731
572929.112
570648.4363
565795.4857
558713.3094
549649.7573
538848.6328
526552.9281
513015.0498
498459.0181
483096.1426
467132.1203
450771.4199
434161.8233
417459.3606
400807.1063
384300.886
368053.8668
352135.6445
336614.3135
321545.8617
306961.0406
292901.0312
279371.4168
266400.1555
253976.2353
242114.796
230794.7616
220021.7701
209768.9833
200034.9291
190790.7481
182029.9129
173722.5176
165858.7197
158410.0173
151364.777
144695.9833
138391.216
132425.1944
126785.9469
121450.1729
116406.3093
111632.8377
107119.68
102847.0466
98806.11566
94978.74551
91356.29176
87923.83745
84672.68189
560065.5243
557846.4331
553124.4242
546233.0436
537413.1389
526901.5809
514945.2452
501773.5459
487602.598
472644.2623
457112.4094
441177.2271
424997.125
408736.1437
392508.598
376425.2628
360592.7842
345071.6887
329943.919
315245.0672
301023.0772
287301.8252
274102.6526
261438.4862
249312.1274
237726.1016
226671.7762
216144.0595
206126.9706
196610.0762
187574.1053
179004.4052
170879.9155
163183.925
155895.5963
148997.2926
142468.7646
136292.326
130448.8262
124921.6494
119692.7191
114746.5282
110066.2487
105638.2894
101446.8861
97480.2796
93723.20451
90166.01743
86794.38684
83600.72037
547743.11
545582.1403
540983.7328
534272.4971
525682.7172
515454.8216
503815.2038
490983.5371
477177.0574
462610.5061
447479.3402
431947.7918
416183.0394
400333.8566
384510.2717
368835.572
353392.0146
338255.8638
323497.5961
309152.7196
295277.1174
281880.3706
268998.0105
256628.6325
244788.0957
233466.9585
222668.5569
212377.0304
202587.3561
193280.0523
184445.2213
176060.3778
168112.8849
160579.4508
153446.5429
146690.7707
140298.3438
134246.5373
128522.0618
123103.8344
117978.7773
113127.6067
108537.9914
104192.9587
100080.7125
96186.34854
92498.2135
89004.05543
85692.59961
82553.89412
535930.2444
533824.0466
529342.1432
522800.7512
514439.5895
504474.2959
493126.8869
480616.459
467156.8479
452963.6617
438206.7054
423057.7358
407691.547
392228.8595
376793.5099
361503.463
346430.479
331664.6724
317255.9947
303256.7928
289705.3723
276624.6275
264041.3287
251957.8743
240389.4028
229325.1097
218771.5502
208709.2846
199138.0101
190034.5566
181393.2413
173188.6428
165411.6977
158037.1829
151054.1602
144438.0223
138176.9483
132247.4335
126638.0053
121326.6435
116302.2049
111544.1142
107042.621
102778.5504
98743.57573
94919.76515
91298.94261
87866.33688
84613.62046
81528.56577
524597.1421
522542.4518
518176.1565
511804.0255
503647.4023
493924.4088
482852.396
470644.9509
457523.9381
443672.1041
429269.0415
414492.1982
399493.7382
384397.7761
369337.5986
354407.0094
339691.0696
325274.1615
311199.287
297530.5179
284289.485
271513.8082
259215.5652
247410.1601
236100.3271
225287.2531
214966.2865
205129.0147
195765.7196
186862.7086
178406.0814
170378.9584
162765.3811
155547.5584
148708.5183
142230.2408
136095.6112
130287.1142
124788.6108
119583.1968
114655.7703
109990.359
105573.6943
101390.641
97429.68291
93676.03317
90120.23265
86748.32015
83552.8223
80520.34549
513728.3015
511724.8706
507461.5684
501238.8824
493273.415
483778.0705
472964.9994
461053.4759
448240.4269
434710.4412
420642.7623
406218.2265
391565.762
376821.4181
362113.0465
347524.0037
333152.837
319063.2735
305312.811
291953.9492
279011.8145
266526.9509
254502.464
242964.4484
231903.7631
221333.0274
211236.8279
201617.2938
192455.5878
183747.0923
175469.9842
167615.5813
160161.2375
153096.3049
146397.9525
140054.5035
134043.7095
128353.8327
122964.1824
117862.7958
113030.7256
108456.4554
104123.2797
100020.0036
96131.92432
92447.84775
88955.67707
85644.49418
82504.44748
79524.63378
503286.9868
501328.5348
497160.9897
491078.0683
483291.4843
474009.332
463446.4516
451807.4644
439281.1645
426053.8175
412312.2854
398209.5658
383883.785
369478.1906
355096.775
340834.2566
326788.0959
313010.0846
299570.9036
286506.0001
273855.1808
261643.8577
249887.6295
238601.3636
227784.6244
217443.9465
207567.9479
198156.6314
189192.8094
180671.1514
172570.759
164882.9688
157585.8836
150668.9085
144109.8955
137897.3091
132009.4748
126435.1507
121153.6395
116154.0019
111416.6428
106931.9697
102681.506
98657.12231
94841.26685
91226.15593
87797.09631
84546.14308
81461.1077
78533.82566
493244.3308
491327.718
487249.2828
481296.4955
473676.5851
464599.1238
454269.4576
442879.5628
430621.5543
417683.249
404242.3459
390442.0634
376428.4909
362337.7069
348265.1495
334318.2125
320573.5917
307094.9913
293948.6284
281164.0927
268791.7399
256842.3694
245344.1003
234299.3339
223719.2775
213599.0672
203938.1233
194726.7563
185957.1283
177615.3909
169689.1341
162162.4856
155020.9773
148247.6725
141827.0455
135741.9746
129976.8388
124515.4584
119342.3249
114442.3007
109800.4775
105403.5313
101237.1404
97289.70669
93547.09236
89999.77152
86634.29303
83443.10193
80413.11903
77538.40189
483576.4157
481698.4918
477702.4982
471870.1839
464410.8459
455524.0743
445403.9889
434245.6574
422237.4278
409574.753
396408.7159
382891.4334
369176.1918
355375.6179
341595.227
327944.5189
314484.8876
301294.2947
288421.4942
275909.6423
263797.0751
252100.6066
240846.9176
230034.8626
219681.8051
209774.3037
200321.4009
191303.8779
182722.9852
174556.5201
166800.344
159431.4563
152442.6493
145810.6917
139526.5483
133567.5503
127924.0242
122574.8433
117509.609
112708.9893
108162.7026
103853.6666
99771.66723
95901.62622
92233.1628
88753.86779
85453.47805
82321.84645
79348.65332
76526.05933
474260.4875
472418.0662
468498.1833
462784.5727
455471.1214
446753.486
436826.6282
425882.1247
414115.4008
401697.9407
388787.1093
375539.0593
362096.2648
348566.8774
335067.7518
321687.5636
308497.6474
295577.2488
282963.1013
270711.0512
258844.219
247392.2591
236368.6498
225784.2956
215644.3546
205946.5486
196689.7606
187863.8097
179462.2238
171469.6555
163876.3851
156664.8198
149823.2757
143333.0008
137181.365
131349.4379
125824.9083
120589.2129
115630.4415
110930.7418
106479.6057
102259.978
98262.83697
94471.46597
90878.44837
87468.58613
84234.75977
81164.16121
78249.42973
75480.21747
465279.8028
463472.1617
459626.0077
454012.7437
446828.1823
438264.8331
428514.5276
417771.1254
406221.7662
394028.8355
381353.0971
368358.0772
355163.3452
341886.6458
328648.3246
315520.4162
302589.104
289915.7467
277548.4673
265537.873
253903.5045
242683.2245
231878.2691
221511.0915
211574.8699
202078.3912
193010.129
184369.601
176141.0718
168318.1062
160882.9985
153826.0451
147128.4334
140778.5175
134757.3076
129052.4339
123645.8785
118524.7404
113672.2036
109075.567
104719.9119
100592.7731
96681.00645
92972.1033
89455.22372
86118.26004
82952.45592
79945.77945
77091.70047
74378.36784
456615.7573
454836.9201
451052.2834
445529.1631
438460.5569
430036.2499
420446.9723
409890.0063
398532.2527
386543.4799
374090.0163
361318.7888
348351.4376
335315.1121
322309.3574
309414.9577
296723.3394
284279.614
272146.2836
260358.0501
248947.8399
237939.4382
227345.1391
217179.1909
207439.2756
198131.8113
189245.8039
180781.0332
172720.6968
165060.0439
157779.7457
150872.122
144316.5115
138103.487
132212.0902
126632.5568
121344.4128
116337.7088
111592.7267
107100.5184
102842.3831
98810.29306
94986.7394
91363.56089
87926.24125
84666.37093
81571.87176
78634.14001
75843.50901
73190.94523
448240.8529
446487.388
442757.01
437313.5116
430347.51
422046.4982
412609.8673
402210.2282
391023.706
379218.6973
366966.9519
354395.5192
341635.2898
328816.1763
316022.1182
303348.7576
290869.2179
278638.692
266719.1995
255136.4671
243934.3956
233122.9444
222726.9816
212747.6628
203194.6616
194062.8665
185351.9547
177051.238
169153.8616
161645.9242
154517.0335
147751.2058
141335.9409
135254.2695
129492.8624
124035.0937
118867.1423
113973.0349
109339.1566
104951.0651
100795.4267
96859.3127
93129.37853
89594.78583
86242.67551
83064.18655
80046.59575
77183.23214
74461.72378
71876.11332
440136.3501
438404.7036
434721.0643
429346.282
422469.0377
414285.2009
404972.0681
394709.7445
383673.2034
372039.0885
359956.7739
347562.2658
334994.033
322361.3337
309756.7124
297282.4207
284993.8804
272961.6334
261231.0208
249840.5432
238823.2256
228195.115
217978.178
208172.4828
198790.451
189822.6578
181273.3816
173126.7904
165381.2508
158018.1043
151031.6727
144401.7897
138120.1032
132166.0666
126530.2469
121192.5464
116142.7611
111361.5293
106839.2039
102557.3044
98507.06985
94670.58695
91039.68765
87598.59672
84339.06998
81247.70001
78316.04316
75533.08438
72889.95694
70378.29486
432284.4307
430570.9082
426926.1896
421608.7803
414815.3718
406722.3354
397512.8743
387366.9503
376462.7744
364971.3064
353034.5905
340795.4011
328391.9339
315921.4803
303490.643
291183.4155
279064.5956
267206.6059
255643.2188
244425.3889
233571.2145
223110.4133
213050.5268
203404.8962
194173.0116
185357.5009
176950.6558
168948.1144
161337.576
154110.9184
147252.5954
140752.2738
134592.462
128762.0078
123242.9843
118023.6437
113086.1648
108418.9825
104005.3192
99833.7758
95888.64549
92158.41046
88629.38327
85290.23412
82129.12964
79134.76193
76297.39232
73605.51526
71051.64675
68624.64598
424668.1806
422968.9339
419358.1324
414093.6264
407359.2836
399338.0417
390212.2028
380160.7664
369370.7596
357991.9703
346175.6746
334072.8026
321801.2153
309467.357
297184.2142
285018.4168
273050.6647
261335.8772
249920.9165
238846.7273
228136.0736
217816.8629
207894.7113
198385.9962
189286.107
180601.4074
172320.4911
164442.2523
156952.3029
149844.1255
143101.828
136715.0672
130667.7376
124947.5073
119538.6243
114427.3545
109598.7407
105039.0092
100733.9555
96670.01967
92833.24519
89211.15793
85790.40989
82559.75107
79506.01442
76619.59164
73887.23597
71301.18951
68848.9804
66523.69122
412004.3389
406772.8572
400081.8808
392113.8818
383050.6853
373080.117
362370.0359
351078.2006
339360.2934
327361.6011
315194.3264
302977.7302
290805.8561
278755.933
266909.7595
255311.0276
244019.7046
233060.5943
222471.4303
212264.1669
202459.2532
193058.4479
184070.9056
175489.1732
167315.2639
159535.5226
152148.2164
145135.1644
138492.0893
132199.0081
126248.6607
120622.497
115310.2348
110294.9019
105564.9493
101104.8774
96902.32606
92942.5198
89213.21361
85700.61427
82392.92114
79276.65247
76340.96991
73572.30871
70961.20943
68494.37676
66164.07168
63957.44239
)
;

boundaryField
{
    front_top
    {
        type            wedge;
    }
    front_middle
    {
        type            wedge;
    }
    front_bottom
    {
        type            wedge;
    }
    back_top
    {
        type            wedge;
    }
    back_middle
    {
        type            wedge;
    }
    back_bottom
    {
        type            wedge;
    }
    axis_top
    {
        type            symmetryPlane;
    }
    axis_middle
    {
        type            symmetryPlane;
    }
    axis_bottom
    {
        type            symmetryPlane;
    }
    wall_top
    {
        type            calculated;
        value           nonuniform List<scalar> 
23
(
90041.62215
88793.28977
87584.52712
86413.7319
85278.56002
84175.99847
83103.56805
82058.575
81037.9856
80038.4699
79056.4764
78085.70365
77119.31614
76148.3336
75160.75085
74140.38436
73066.34834
71907.90178
70624.6349
69162.55894
67451.59315
65400.09661
62893.80321
)
;
    }
    wall_middle
    {
        type            calculated;
        value           nonuniform 0();
    }
    wall_bottom
    {
        type            calculated;
        value           nonuniform 0();
    }
    inlet
    {
        type            calculated;
        value           nonuniform 0();
    }
    outlet
    {
        type            calculated;
        value           nonuniform 0();
    }
    procBoundary6to5
    {
        type            processor;
        value           nonuniform List<scalar> 
51
(
417277.656
415591.0277
415591.0277
404841.6357
399630.3474
392966.3977
385032.2718
376015.0527
366096.2474
355439.8072
344207.8583
332564.9532
320636.6083
308545.8223
296415.1518
284324.7388
272367.3671
260606.5281
249100.5286
237896.8239
227028.2374
216526.573
206406.6397
196686.3085
187369.618
178462.0094
169960.712
161861.8483
154159.8267
146843.6169
139906.5201
133332.2407
127114.6108
121234.9258
115685.1485
110447.8255
105512.7316
100864.8276
96491.88767
92380.30444
88517.01879
84889.84462
81485.2717
78291.65073
75295.51764
72485.07667
69847.67161
67371.38518
65044.61013
62854.75275
60791.92719
)
;
    }
    procBoundary6to7
    {
        type            processor;
        value           nonuniform List<scalar> 
51
(
700153.2676
697223.2755
690990.6996
681900.3682
670276.0066
656436.7883
640716.8348
623421.9177
604844.6301
585269.3157
564985.201
544212.87
523166.3121
502068.1191
481056.6454
460286.76
439883.867
419933.4333
400539.0962
373075.8573
373075.8573
355461.5189
338503.4571
322234.7459
306653.9662
291777.028
277587.8662
264089.3215
251256.7889
239081.8338
227536.0388
216603.8597
206255.4713
196470.763
187221.233
178483.5752
170230.8336
162438.7916
155083.1172
148139.7208
141586.5422
135400.4037
129561.5627
124048.758
118843.9762
113927.8966
109284.2504
104896.2698
100748.9812
96827.94688
93118.83346
)
;
    }
}


// ************************************************************************* //
