/*--------------------------------*- C++ -*----------------------------------*\
  =========                 |
  \\      /  F ield         | OpenFOAM: The Open Source CFD Toolbox
   \\    /   O peration     | Website:  https://openfoam.org
    \\  /    A nd           | Version:  7
     \\/     M anipulation  |
\*---------------------------------------------------------------------------*/
FoamFile
{
    version     2.0;
    format      ascii;
    class       volScalarField;
    location    "0.0003";
    object      thermo:alpha;
}
// * * * * * * * * * * * * * * * * * * * * * * * * * * * * * * * * * * * * * //

dimensions      [1 -1 -1 0 0 0 0];

internalField   nonuniform List<scalar> 
1167
(
0.0001213950987
0.0001213936526
0.0001213905535
0.0001213859763
0.0001213800213
0.000121371191
0.0001213607019
0.0001213488138
0.0001213356204
0.0001213212251
0.0001213057092
0.0001212891479
0.000121269605
0.0001212476098
0.0001212246349
0.0001211970041
0.0001211683018
0.0001211387554
0.0001211084393
0.0001213859003
0.0001213844585
0.0001213813686
0.0001213761905
0.0001213688205
0.0001213598551
0.0001213493968
0.0001213375437
0.0001213243982
0.0001213100524
0.0001212945824
0.0001212773072
0.000121256439
0.0001212345087
0.0001212096034
0.0001211819376
0.0001211533244
0.0001211238821
0.0001210936558
0.0001210627596
0.0001210312369
0.0001209960074
0.0001209588741
0.0001209183415
0.0001208756215
0.0001208354264
0.0001207967859
0.0001207548886
0.0001207110005
0.000120663714
0.0001206147178
0.000120569235
0.0001205250665
0.0001204771076
0.0001204281937
0.0001203794302
0.0001203308124
0.0001202824213
0.0001202342406
0.0001201818545
0.0001201294794
0.0001200820223
0.000120035061
0.0001199840302
0.0001199331961
0.0001198870661
0.0001198416701
0.0001197928632
0.0001197438931
0.0001196987656
0.0001213762723
0.0001213744877
0.0001213706631
0.0001213650142
0.000121357665
0.0001213487248
0.0001213382961
0.0001213264824
0.0001213133839
0.0001212990788
0.0001212836528
0.0001212643125
0.0001212435036
0.0001212212659
0.0001211947173
0.0001211671302
0.0001211386195
0.0001211092616
0.0001210791361
0.0001210483356
0.0001210162388
0.0001209797808
0.0001209424853
0.0001209003749
0.0001208579021
0.0001208196843
0.0001207810056
0.0001207374747
0.0001206934069
0.0001206446919
0.0001205963974
0.0001205523885
0.000120507541
0.0001204587152
0.0001204099606
0.0001203613517
0.0001203128955
0.0001202646548
0.0001202151607
0.0001201626547
0.0001201120024
0.000120064869
0.0001200165619
0.0001199654903
0.0001199161537
0.0001198705021
0.0001198242408
0.0001197749547
0.0001197266659
0.0001196827612
0.0001213652686
0.0001213634887
0.0001213596744
0.0001213540406
0.0001213467111
0.0001213377949
0.000121327399
0.000121315628
0.0001213025648
0.0001212882986
0.000121271151
0.0001212515435
0.0001212307912
0.00012120656
0.0001211800839
0.0001211525779
0.0001211241607
0.000121094884
0.0001210648626
0.0001210341482
0.0001210001724
0.0001209638169
0.0001209246871
0.0001208826957
0.0001208423005
0.0001208041924
0.0001207637407
0.0001207203354
0.0001206745421
0.0001206259682
0.000120579686
0.0001205358062
0.0001204892934
0.0001204406109
0.0001203920225
0.000120343557
0.0001202952662
0.0001202471682
0.0001201961099
0.0001201437585
0.0001200949826
0.0001200479883
0.0001199981687
0.0001199472465
0.0001198997223
0.000119854204
0.0001198064787
0.0001197573343
0.0001197107944
0.0001196670149
0.0001213544644
0.000121352689
0.0001213488842
0.0001213432647
0.0001213359537
0.0001213270653
0.0001213167058
0.0001213049648
0.0001212919352
0.000121276872
0.0001212585493
0.0001212389924
0.0001212173817
0.0001211921005
0.0001211656934
0.0001211382797
0.0001211099376
0.0001210807504
0.0001210508177
0.0001210199787
0.000120984359
0.0001209481024
0.000120907165
0.000120865289
0.0001208269381
0.0001207889367
0.0001207467379
0.0001207034553
0.0001206559617
0.000120607526
0.0001205632256
0.0001205194727
0.0001204713193
0.0001204227782
0.0001203743537
0.00012032603
0.0001202779025
0.0001202297995
0.0001201773474
0.0001201253642
0.000120078222
0.0001200311933
0.0001199800573
0.0001199292993
0.0001198835443
0.0001198381577
0.0001197889917
0.0001197399873
0.0001196951695
0.0001196515133
0.0001213438548
0.0001213420835
0.0001213382877
0.0001213326813
0.000121325395
0.0001213165351
0.0001213062002
0.0001212944872
0.0001212813894
0.000121264439
0.0001212461605
0.000121226651
0.0001212030963
0.000121177877
0.000121151542
0.0001211242097
0.0001210959389
0.0001210668455
0.0001210369895
0.0001210043113
0.0001209687843
0.0001209311143
0.0001208899023
0.0001208493352
0.0001208117998
0.0001207728615
0.0001207299799
0.0001206857567
0.0001206376461
0.0001205905566
0.000120546999
0.000120502017
0.0001204535998
0.0001204052179
0.0001203569356
0.0001203087737
0.0001202607863
0.0001202111531
0.0001201588535
0.0001201087081
0.0001200617038
0.0001200131969
0.0001199622093
0.0001199132264
0.0001198676038
0.0001198210642
0.0001197717626
0.0001197237336
0.0001196797761
0.0001196362438
0.0001213334347
0.0001213316673
0.0001213278835
0.0001213222971
0.0001213150294
0.0001213061886
0.0001212958762
0.000121284189
0.0001212691267
0.0001212522138
0.0001212339761
0.0001212129844
0.0001211890402
0.0001211638785
0.0001211376241
0.0001211103558
0.0001210821617
0.000121053148
0.0001210233647
0.0001209888711
0.0001209534324
0.0001209139877
0.0001208728803
0.0001208343056
0.0001207968686
0.000120756214
0.000120713447
0.0001206675531
0.0001206195733
0.0001205744224
0.0001205309862
0.0001204843934
0.000120436113
0.0001203878906
0.0001203397466
0.0001202917449
0.0001202438963
0.0001201927539
0.0001201406059
0.0001200922749
0.0001200454076
0.0001199954438
0.0001199446038
0.000119897373
0.000119851882
0.0001198039334
0.0001197547716
0.0001197084315
0.0001196645967
0.000119621202
0.0001213232099
0.0001213214483
0.0001213176731
0.0001213120974
0.0001213048437
0.0001212960201
0.0001212857279
0.0001212725233
0.000121257067
0.0001212401879
0.0001212216744
0.0001211990964
0.0001211752016
0.0001211501017
0.0001211239139
0.0001210967048
0.0001210685921
0.0001210396436
0.0001210082896
0.0001209736405
0.0001209374687
0.0001208970855
0.0001208563904
0.000120819467
0.000120782091
0.0001207397726
0.0001206971165
0.0001206495702
0.0001206017179
0.000120558481
0.0001205150966
0.0001204669788
0.0001204188357
0.0001203707683
0.0001203227654
0.0001202749182
0.0001202267921
0.0001201745748
0.0001201230291
0.0001200760406
0.000120028935
0.0001199779081
0.0001199274216
0.0001198817165
0.0001198363566
0.0001197870178
0.0001197379949
0.0001196933232
0.0001196496102
0.0001196063515
0.0001213131682
0.0001213114094
0.0001213076405
0.000121302074
0.0001212948323
0.0001212860235
0.0001212745354
0.0001212606312
0.0001212452016
0.0001212283523
0.0001212079559
0.0001211854187
0.000121161568
0.0001211365346
0.0001211103972
0.0001210832499
0.0001210552048
0.0001210263161
0.000120993174
0.0001209585994
0.0001209206763
0.0001208803836
0.0001208416334
0.0001208047972
0.0001207657255
0.0001207235111
0.0001206792641
0.0001206317777
0.0001205857931
0.0001205427052
0.0001204977291
0.0001204497422
0.0001204017534
0.0001203538203
0.0001203059741
0.0001202582634
0.0001202086495
0.0001201565827
0.0001201068273
0.0001200599759
0.0001200114367
0.0001199605583
0.0001199118015
0.0001198662291
0.0001198195836
0.0001197702873
0.0001197223775
0.0001196783826
0.0001196347944
0.0001195916666
0.0001213033005
0.0001213015441
0.0001212977801
0.000121292221
0.0001212849892
0.0001212750652
0.0001212628133
0.0001212489287
0.0001212335213
0.0001212155254
0.0001211944407
0.0001211719381
0.0001211481369
0.0001211231517
0.0001210970583
0.0001210699768
0.0001210419821
0.0001210119572
0.0001209782316
0.0001209435734
0.0001209040634
0.0001208638543
0.000120827024
0.0001207902697
0.0001207495139
0.0001207073982
0.0001206615101
0.00012061414
0.0001205700385
0.0001205270617
0.0001204805051
0.0001204326464
0.0001203848096
0.000120337009
0.000120289318
0.0001202417428
0.0001201906535
0.0001201387368
0.0001200907584
0.0001200440442
0.0001199940848
0.0001199433552
0.000119896315
0.0001198508759
0.0001198028596
0.0001197537047
0.0001197074475
0.0001196635762
0.0001196201256
0.0001195771148
0.0001212936015
0.0001212918468
0.0001212880864
0.0001212825327
0.0001212740091
0.0001212635156
0.0001212512764
0.0001212374064
0.0001212217079
0.0001212021753
0.0001211811152
0.0001211586401
0.0001211348879
0.000121109936
0.0001210838861
0.0001210568557
0.0001210289037
0.0001209971064
0.0001209634368
0.0001209270372
0.0001208875982
0.0001208487371
0.0001208125321
0.0001207750514
0.00012073342
0.000120690835
0.0001206438731
0.0001205970929
0.0001205543796
0.000120511044
0.000120463379
0.000120415652
0.0001203679578
0.0001203202949
0.0001202727502
0.0001202247073
0.0001201727525
0.0001201215833
0.0001200747757
0.0001200277146
0.0001199768283
0.0001199265438
0.000119880917
0.0001198356118
0.0001197862345
0.0001197372217
0.0001196926085
0.0001196488612
0.000119605548
0.000119562654
0.0001212840657
0.0001212823118
0.0001212778844
0.0001212712564
0.0001212626343
0.000121252147
0.0001212399152
0.0001212260544
0.000121208526
0.0001211890077
0.0001211679642
0.0001211455234
0.000121121796
0.0001210968684
0.0001210708644
0.0001210438644
0.0001210151472
0.0001209823832
0.0001209487597
0.0001209106221
0.0001208712438
0.0001208342633
0.0001207981215
0.0001207589512
0.0001207173998
0.0001206731646
0.0001206263013
0.0001205813828
0.0001205387675
0.000120493842
0.000120446294
0.0001203987092
0.0001203511395
0.0001203036254
0.0001202562112
0.0001202066872
0.0001201548801
0.0001201054892
0.000120058819
0.0001200103365
0.0001199596013
0.0001199110383
0.0001198655482
0.0001198189002
0.0001197696437
0.0001197218067
0.0001196778033
0.0001196341854
0.0001195910054
0.0001195482282
0.0001212732678
0.0001212711735
0.0001212666858
0.000121260058
0.0001212514364
0.00012124095
0.0001212287199
0.0001212133922
0.0001211955205
0.0001211760074
0.0001211549727
0.0001211325572
0.000121108841
0.0001210839343
0.000121057958
0.0001210309778
0.0001210004887
0.0001209677546
0.000120932845
0.0001208942861
0.0001208553933
0.0001208198378
0.0001207837485
0.000120742882
0.0001207014
0.0001206555058
0.0001206087308
0.0001205656657
0.0001205231409
0.0001204766163
0.0001204291786
0.0001203817305
0.0001203342804
0.0001202869111
0.0001202396242
0.0001201886118
0.0001201369505
0.0001200893423
0.0001200428091
0.0001199929001
0.0001199423168
0.0001198954818
0.0001198501295
0.0001198021104
0.0001197530016
0.0001197068288
0.000119662955
0.0001196194802
0.0001195764222
0.0001195327041
0.0001212622497
0.0001212601542
0.0001212556638
0.0001212490325
0.0001212404064
0.0001212299149
0.0001212166674
0.0001212005536
0.0001211826756
0.0001211631569
0.000121142136
0.0001211197175
0.0001210960001
0.0001210711127
0.0001210451401
0.0001210176772
0.0001209859008
0.0001209531816
0.0001209165121
0.0001208779796
0.0001208409323
0.0001208054107
0.0001207677636
0.0001207267815
0.0001206841359
0.0001206377825
0.0001205921184
0.0001205498677
0.0001205065111
0.0001204592787
0.0001204119532
0.0001203646223
0.0001203172957
0.0001202700541
0.0001202220491
0.0001201703693
0.0001201196443
0.0001200730386
0.000120026003
0.0001199752892
0.0001199252811
0.0001198797677
0.0001198344756
0.0001197851506
0.0001197361918
0.0001196917007
0.0001196479586
0.0001196046292
0.0001195616952
0.0001195166506
0.0001212514047
0.0001212493064
0.0001212448104
0.0001212381709
0.0001212295344
0.0001212182381
0.0001212040011
0.0001211878701
0.0001211699742
0.0001211504457
0.0001211294164
0.0001211069807
0.0001210832555
0.0001210583638
0.0001210323793
0.0001210031253
0.0001209713415
0.0001209378433
0.0001209001699
0.0001208616434
0.000120826427
0.0001207909219
0.0001207515247
0.0001207105735
0.0001206662051
0.0001206199007
0.0001205760876
0.0001205338955
0.0001204888693
0.0001204417168
0.0001203945005
0.0001203472641
0.0001203000604
0.0001202529266
0.0001202033616
0.0001201518122
0.0001201029164
0.0001200564392
0.0001200079127
0.0001199573469
0.0001199091262
0.0001198637519
0.0001198170329
0.000119767861
0.000119720245
0.0001196762777
0.0001196326763
0.0001195894891
0.0001195466817
0.0001195002851
0.0001212407248
0.0001212386222
0.0001212341169
0.0001212274639
0.0001212179819
0.0001212057499
0.0001211914857
0.0001211753248
0.000121157397
0.0001211378532
0.0001211167899
0.0001210943201
0.0001210705792
0.000121045655
0.0001210193559
0.0001209885752
0.0001209567616
0.0001209214515
0.000120883753
0.0001208467307
0.00012081181
0.0001207755513
0.0001207351095
0.0001206939043
0.0001206480247
0.0001206017434
0.0001205597865
0.0001205176316
0.0001204708811
0.0001204237868
0.0001203766602
0.0001203294994
0.0001202824021
0.0001202353605
0.000120184177
0.0001201327447
0.0001200857145
0.0001200393572
0.0001199892843
0.0001199388608
0.0001198924737
0.0001198472362
0.00011979904
0.0001197500213
0.0001197041871
0.000119660359
0.0001196169132
0.0001195738603
0.0001195298697
0.0001194833906
0.0001212302018
0.0001212280928
0.0001212235188
0.0001212157634
0.0001212056762
0.000121193409
0.0001211791045
0.0001211628991
0.0001211449394
0.000121125346
0.0001211042297
0.0001210817159
0.0001210579277
0.0001210329489
0.0001210048156
0.0001209739749
0.000120941754
0.0001209049402
0.0001208671842
0.0001208319617
0.0001207969999
0.0001207588871
0.0001207184117
0.0001206753592
0.0001206294584
0.0001205849976
0.0001205430758
0.0001204993072
0.0001204523718
0.000120405324
0.0001203582383
0.0001203111437
0.0001202641083
0.0001202157278
0.0001201642423
0.0001201142451
0.0001200677935
0.0001200203994
0.0001199698336
0.0001199204526
0.0001198750552
0.0001198294144
0.0001197801937
0.0001197313869
0.0001196873523
0.0001196436649
0.0001196003784
0.0001195574639
0.0001195119995
0.0001194656638
0.0001212191636
0.0001212167025
0.0001212114293
0.0001212036427
0.0001211935152
0.0001211811997
0.0001211668397
0.0001211505806
0.0001211325628
0.0001211128976
0.0001210917058
0.0001210691314
0.000121045263
0.0001210199977
0.0001209901977
0.0001209592639
0.0001209251414
0.0001208882264
0.0001208513208
0.0001208169401
0.0001207818384
0.0001207418542
0.0001207013018
0.0001206563088
0.000120610338
0.0001205677472
0.0001205257802
0.0001204800847
0.0001204331194
0.0001203860772
0.0001203389844
0.0001202919189
0.0001202449004
0.0001201946623
0.0001201432215
0.0001200952091
0.000120048823
0.0001199996434
0.0001199491737
0.000119901791
0.0001198565018
0.0001198091586
0.0001197600743
0.0001197132501
0.0001196693516
0.0001196258183
0.0001195826802
0.0001195394578
0.0001194928619
0.0001194466781
0.000121207267
0.0001212047928
0.0001211994918
0.0001211916644
0.0001211814842
0.0001211691052
0.0001211546744
0.000121138348
0.0001211202405
0.0001211004788
0.0001210791986
0.0001210565213
0.0001210325423
0.0001210053724
0.0001209754402
0.0001209443005
0.0001209082792
0.0001208712136
0.0001208360713
0.0001208015606
0.0001207644326
0.0001207243095
0.0001206822151
0.0001206365628
0.0001205915556
0.0001205497533
0.0001205067972
0.0001204599039
0.0001204128521
0.0001203657407
0.0001203185853
0.0001202714772
0.0001202237237
0.0001201721269
0.0001201212955
0.0001200747291
0.0001200278902
0.0001199771967
0.0001199270249
0.0001198815177
0.0001198363059
0.0001197870701
0.0001197380996
0.0001196934138
0.0001196496415
0.0001196062656
0.000119563269
0.0001195182866
0.0001194718535
0.0001194272788
0.0001211955211
0.0001211930302
0.000121187694
0.0001211798147
0.0001211695675
0.0001211571073
0.0001211425996
0.0001211261678
0.0001211079444
0.0001210880586
0.0001210666612
0.0001210438431
0.0001210194442
0.000120990584
0.0001209604728
0.0001209272979
0.0001208910672
0.0001208543572
0.0001208203996
0.0001207856996
0.0001207464164
0.0001207060821
0.0001206617718
0.0001206158912
0.0001205727638
0.0001205307667
0.0001204855307
0.0001204384366
0.0001203912212
0.0001203439304
0.0001202966357
0.000120249375
0.0001201992963
0.0001201475662
0.0001200988891
0.0001200522395
0.0001200031145
0.0001199523741
0.0001199044647
0.0001198589594
0.0001198116414
0.0001197623611
0.0001197151683
0.0001196711313
0.0001196274761
0.0001195842348
0.0001195410685
0.000119494387
0.0001194481257
0.000119405901
0.0001211839145
0.0001211814031
0.0001211760229
0.0001211680792
0.0001211577483
0.0001211452026
0.0001211305784
0.0001211140139
0.000121095644
0.0001210756168
0.0001210540491
0.0001210310502
0.0001210046495
0.0001209755626
0.0001209452159
0.0001209099027
0.0001208733908
0.0001208383949
0.0001208041769
0.0001207675971
0.0001207276083
0.000120685926
0.0001206402385
0.0001205947571
0.0001205527846
0.0001205099051
0.0001204626997
0.0001204152824
0.000120367766
0.0001203201684
0.000120272593
0.0001202244141
0.0001201722685
0.0001201209207
0.0001200738533
0.0001200263882
0.0001199751723
0.0001199247346
0.0001198788032
0.0001198329868
0.0001197832669
0.0001197339491
0.0001196893711
0.0001196453664
0.0001196018044
0.0001195586561
0.0001195130907
0.0001194665667
0.0001194224245
0.0001193809902
0.0001211724356
0.000121169899
0.0001211644653
0.0001211564426
0.0001211460239
0.0001211333558
0.0001211185867
0.0001211018583
0.0001210833147
0.0001210630989
0.0001210413178
0.0001210175914
0.0001209896071
0.0001209602305
0.0001209277
0.000120892001
0.0001208555398
0.0001208218219
0.000120787255
0.0001207481994
0.0001207077966
0.0001206634875
0.0001206173196
0.0001205737051
0.0001205312867
0.0001204855614
0.0001204378506
0.0001203899576
0.0001203419346
0.0001202938664
0.0001202457943
0.0001201944436
0.0001201417762
0.0001200927746
0.0001200452733
0.0001199945427
0.0001199429111
0.0001198950986
0.0001198488647
0.0001197998087
0.0001197498531
0.0001197032656
0.0001196587544
0.0001196147143
0.0001195711494
0.0001195264149
0.0001194795388
0.0001194339275
0.0001193922641
0.0001193510339
0.0001211610725
0.0001211585056
0.0001211530122
0.0001211449056
0.0001211343632
0.0001211215444
0.0001211065994
0.0001210896713
0.0001210709229
0.0001210504639
0.0001210284194
0.0001210025709
0.0001209742429
0.0001209444457
0.0001209096178
0.0001208734655
0.0001208386481
0.0001208044905
0.0001207678813
0.0001207276958
0.0001206856688
0.0001206394976
0.0001205935458
0.0001205509245
0.0001205070147
0.0001204588817
0.0001204104507
0.0001203618327
0.0001203130683
0.0001202642554
0.0001202138393
0.000120160232
0.0001201086358
0.0001200602006
0.0001200098884
0.0001199571889
0.0001199070905
0.0001198598927
0.0001198108889
0.0001197599332
0.0001197115534
0.0001196662315
0.0001196214366
0.0001195771969
0.0001195324045
0.0001194849623
0.0001194384209
0.0001193964108
0.0001193549152
0.0001193105305
0.0001211416559
0.0001211334358
0.0001211227454
0.0001211097462
0.00012109459
0.0001210774377
0.0001210584221
0.000121037668
0.0001210144134
0.0001209872285
0.0001209584769
0.0001209262454
0.0001208908787
0.000120854683
0.000120820956
0.0001207862358
0.0001207467265
0.0001207058434
0.0001206606265
0.0001206136061
0.0001205694624
0.0001205260098
0.0001204784222
0.0001204292916
0.000120379866
0.0001203301827
0.0001202803639
0.0001202303318
0.0001201754316
0.000120121189
0.0001200714388
0.0001200207307
0.000119966483
0.0001199140972
0.0001198654559
0.0001198154214
0.000119762912
0.0001197128888
0.0001196662578
0.0001196202331
0.0001195748583
0.0001195287079
0.0001194802739
0.0001194333965
0.0001193907571
0.0001193487734
0.0001193033976
0.0001192586243
)
;

boundaryField
{
    front_top
    {
        type            wedge;
    }
    front_middle
    {
        type            wedge;
    }
    front_bottom
    {
        type            wedge;
    }
    back_top
    {
        type            wedge;
    }
    back_middle
    {
        type            wedge;
    }
    back_bottom
    {
        type            wedge;
    }
    axis_top
    {
        type            symmetryPlane;
    }
    axis_middle
    {
        type            symmetryPlane;
    }
    axis_bottom
    {
        type            symmetryPlane;
    }
    wall_top
    {
        type            calculated;
        value           nonuniform List<scalar> 
23
(
0.000119676808
0.0001196608667
0.0001196451824
0.0001196297509
0.0001196145568
0.0001195995742
0.0001195847822
0.0001195701551
0.0001195556606
0.0001195409388
0.0001195251478
0.000119509313
0.0001194933223
0.0001194770207
0.0001194601923
0.0001194425348
0.0001194252721
0.0001194064232
0.0001193851291
0.000119360316
0.000119328731
0.0001192880944
0.0001192363996
)
;
    }
    wall_middle
    {
        type            calculated;
        value           nonuniform 0();
    }
    wall_bottom
    {
        type            calculated;
        value           nonuniform 0();
    }
    inlet
    {
        type            calculated;
        value           nonuniform 0();
    }
    outlet
    {
        type            calculated;
        value           nonuniform 0();
    }
    procBoundary6to5
    {
        type            processor;
        value           nonuniform List<scalar> 
51
(
0.0001211498224
0.0001211472232
0.0001211472232
0.0001211303708
0.0001211220167
0.0001211111514
0.0001210979384
0.0001210825403
0.0001210651097
0.0001210457734
0.000121024665
0.0001209991546
0.0001209714908
0.0001209418879
0.0001209073828
0.0001208713514
0.0001208367021
0.0001208023063
0.0001207649747
0.0001207241501
0.0001206808275
0.000120633549
0.0001205870247
0.0001205430598
0.0001204966135
0.0001204466169
0.0001203961598
0.0001203453254
0.0001202942003
0.0001202428468
0.0001201873707
0.0001201306599
0.0001200788445
0.0001200268076
0.000119970405
0.0001199156296
0.000119864905
0.0001198124903
0.0001197576435
0.0001197059984
0.0001196573037
0.0001196093003
0.0001195620388
0.0001195126912
0.0001194625037
0.0001194158578
0.0001193720179
0.0001193271692
0.000119280903
0.0001192355754
0.0001191911731
)
;
    }
    procBoundary6to7
    {
        type            processor;
        value           nonuniform List<scalar> 
51
(
0.0001214044699
0.0001214030193
0.0001213999107
0.0001213953194
0.000121389346
0.0001213820797
0.0001213722168
0.0001213602922
0.0001213470584
0.0001213326055
0.0001213170392
0.0001213004271
0.0001212828452
0.0001212609466
0.0001212379014
0.0001212123387
0.000121183549
0.000121153891
0.0001211234824
0.0001210774303
0.0001210774303
0.0001210458135
0.0001210125086
0.0001209752646
0.0001209366095
0.000120893762
0.0001208514308
0.0001208126739
0.0001207725911
0.0001207285709
0.00012068305
0.0001206339065
0.0001205863592
0.0001205420569
0.0001204958031
0.0001204467413
0.0001203978072
0.0001203490422
0.0001203004818
0.0001202521555
0.0001202013728
0.0001201488403
0.0001200994618
0.0001200523592
0.00012000288
0.0001199518945
0.0001199039083
0.0001198583774
0.0001198110729
0.0001197619592
0.0001197150398
)
;
    }
}


// ************************************************************************* //
