/*--------------------------------*- C++ -*----------------------------------*\
  =========                 |
  \\      /  F ield         | OpenFOAM: The Open Source CFD Toolbox
   \\    /   O peration     | Website:  https://openfoam.org
    \\  /    A nd           | Version:  7
     \\/     M anipulation  |
\*---------------------------------------------------------------------------*/
FoamFile
{
    version     2.0;
    format      ascii;
    class       volScalarField;
    location    "0.0009";
    object      generalizedNewtonian:nu;
}
// * * * * * * * * * * * * * * * * * * * * * * * * * * * * * * * * * * * * * //

dimensions      [0 2 -1 0 0 0 0];

internalField   nonuniform List<scalar> 
1167
(
0.7600322103
0.7948320045
0.7879822925
0.7881941644
0.7782240981
0.7670324751
0.7540764145
0.7392700464
0.7229411951
0.7054095628
0.6869480728
0.6678088672
0.648223519
0.628403183
0.6085297432
0.5887615629
0.5692316124
0.5500483149
0.5312973596
0.5130467789
0.4953382017
0.4782003856
0.4616478335
0.4456757548
0.4302704746
0.4154069691
0.4010483196
0.3871474679
0.3736492802
0.3604886848
0.3475896666
0.3348691711
0.3222324279
0.3095777834
0.2967969247
0.2837805206
0.270428072
0.2566655341
0.2424642502
0.2278695456
0.2130180699
0.1981354897
0.1835102427
0.1694416616
0.1561795744
0.1438751706
0.1325579112
0.1221456204
0.1124777994
0.1033613594
0.09465935703
0.8562451144
0.8487658358
0.8486608331
0.8374171178
0.8246803962
0.8099155998
0.7930430576
0.7744290207
0.7544324347
0.7333619049
0.7115014992
0.6891113374
0.6664268995
0.643652521
0.6209622468
0.59850694
0.5764017119
0.554746343
0.5336101602
0.5130437679
0.4930819007
0.4737393029
0.4550191479
0.4369146287
0.419404646
0.4024611329
0.3860502525
0.3701269189
0.354640802
0.3395356259
0.3247457294
0.3102006555
0.2958218286
0.2815263987
0.2672277905
0.252843347
0.2383041122
0.2235750394
0.2086743347
0.1937018734
0.178850506
0.1643922859
0.1506431317
0.1379175291
0.126501065
0.1166525767
0.1086205626
0.1026387773
0.09886793331
0.09719838293
0.9563602751
0.9477137651
0.947108947
0.933947676
0.9189589553
0.9015676772
0.8817189479
0.8598409871
0.8363598735
0.811645607
0.7860383815
0.7598493817
0.7333577568
0.7068110124
0.6804142649
0.654343294
0.6287377368
0.6037072364
0.5793329704
0.5556678719
0.5327411758
0.5105664416
0.4891334896
0.4684224079
0.4484016995
0.429028597
0.4102568778
0.3920333674
0.3743004742
0.3570002183
0.3400689226
0.3234419447
0.3070522002
0.2908296954
0.2747051107
0.2586092192
0.2424831419
0.2262862116
0.2100149385
0.1937283981
0.1775701336
0.161779114
0.1466612342
0.1325139684
0.1195170228
0.1076287973
0.09656960044
0.08598094
0.07571708316
0.06596435255
1.115401586
1.10526835
1.103975919
1.087755838
1.069148103
1.047563654
1.023002486
0.9960160355
0.9671473814
0.9368727738
0.9056260843
0.8737990262
0.8417355327
0.8097327491
0.7780354734
0.7468331394
0.7162728883
0.6864578379
0.6574480105
0.6292741989
0.6019323293
0.5754037996
0.5496508129
0.5246282827
0.5002901262
0.4765870549
0.4534776858
0.430921274
0.4088828364
0.3873285982
0.3662226858
0.3455294873
0.3252034437
0.3051965089
0.2854521927
0.2659123122
0.246518709
0.2272263648
0.2080135428
0.1889064219
0.1700051154
0.151517322
0.1337771951
0.1172233373
0.1023418679
0.08964260005
0.07976801181
0.07367209798
0.07258688711
0.07745768857
1.358784824
1.345983717
1.343294048
1.322125184
1.297727373
1.269463385
1.237399723
1.202286408
1.164845486
1.125715298
1.085471682
1.044627298
1.003624682
0.9628370815
0.9225694369
0.8830651808
0.8445117874
0.8070488729
0.7707896407
0.7358192319
0.7022020642
0.6699962385
0.639238638
0.6099590283
0.582155956
0.555811036
0.5308631494
0.507222222
0.4847547394
0.4632958234
0.4426429155
0.4225717569
0.4028372531
0.3831918867
0.3633931521
0.343224695
0.3225038436
0.3010981639
0.2789241572
0.2559545626
0.232216151
0.2078153741
0.1829870776
0.158122896
0.1337484195
0.1105006545
0.08890208484
0.06854313939
0.04828672879
0.02967938361
1.676286053
1.660087811
1.6544635
1.625135147
1.591350018
1.552351067
1.508514691
1.461036294
1.4110087
1.359376012
1.306971938
1.254513274
1.202599543
1.151725462
1.102295464
1.054643472
1.00904363
0.9657270566
0.9248982032
0.8867223734
0.8513145846
0.8187417506
0.7889901154
0.7619711625
0.7375031524
0.7153281143
0.695113911
0.6764823865
0.6590241727
0.6423196796
0.6259365352
0.6094274903
0.592298791
0.5739990827
0.553909838
0.5313927224
0.5058637119
0.4769119427
0.4444252558
0.4086810793
0.3702966596
0.3299330727
0.2878941411
0.2440842125
0.1988115473
0.1539253215
0.1125157374
0.07656240827
0.04649705529
0.02462645743
2.015270667
1.99469484
1.986121267
1.949092276
1.906613902
1.857769532
1.803284865
1.744823187
1.683892663
1.621765389
1.559558991
1.498236995
1.43862251
1.381426833
1.327270931
1.276683155
1.230095638
1.187819209
1.150004656
1.116557073
1.087107971
1.060953883
1.037032726
1.013941474
0.9899924764
0.9633752014
0.9323532552
0.8955615344
0.8522797634
0.8026529137
0.7477286245
0.6892823636
0.6294288422
0.5701712003
0.5130476485
0.4589877355
0.4083659849
0.3611714119
0.3171896162
0.2761350837
0.237719505
0.2017236611
0.1681249641
0.1372540251
0.1097839052
0.08649445098
0.06803941895
0.0548652032
0.04701999089
0.04386622841
2.483021985
2.455927781
2.440020122
2.387612808
2.327360083
2.25883575
2.183651953
2.104417044
2.023449833
1.942708613
1.863866651
1.788348897
1.71733898
1.651766722
1.592241344
1.538985604
1.491743091
1.449706128
1.411446728
1.374963351
1.337831959
1.297460472
1.251525091
1.198376475
1.137445464
1.069371671
0.9958807664
0.919350265
0.8423153815
0.766992424
0.6950564668
0.6275762108
0.5651025668
0.507760928
0.4553598479
0.4074714463
0.3635219916
0.3228792583
0.2849452028
0.2492410203
0.2155044246
0.1837800007
0.1544547839
0.1281401827
0.1054025046
0.08645959737
0.0710412351
0.0585218081
0.04824065782
0.03968496022
3.163226971
3.125565358
3.097755971
3.022342642
2.936168258
2.840023182
2.737220494
2.63207221
2.528304395
2.428942706
2.336334252
2.252062438
2.176811295
2.110195843
2.050601809
1.995137065
1.939781363
1.879825318
1.810669816
1.728924867
1.633385174
1.525550719
1.409264227
1.289592953
1.171495175
1.058817002
0.95392841
0.8578678423
0.7707290116
0.692054244
0.6211235071
0.5571477996
0.4993496417
0.4470019126
0.3994148973
0.3559418319
0.3159762301
0.2789950068
0.2446025083
0.212592972
0.1829774618
0.1559653199
0.1318600354
0.110917094
0.09323136981
0.0787149589
0.06715438291
0.05826930357
0.05171642584
0.04703213317
4.175906846
4.120917801
4.070356483
3.955680111
3.827048111
3.688759463
3.54760365
3.410648973
3.282870526
3.166889446
3.062814527
2.968105696
2.877668903
2.784389942
2.680325463
2.558613498
2.415616519
2.252383082
2.074566238
1.890589887
1.709025825
1.536626254
1.377497493
1.233403476
1.104427786
0.9896892579
0.8878100598
0.7972664202
0.7165493533
0.6442920756
0.5792980593
0.520559675
0.4672345559
0.4186151492
0.3740977975
0.3331589973
0.2953576351
0.2603552607
0.2279540575
0.1981153512
0.1709438375
0.1466168491
0.1252835113
0.1069778727
0.09157827911
0.07882354046
0.0683636637
0.05981942684
0.05281552929
0.04696762437
5.770972542
5.684861282
5.591108073
5.412729928
5.222375891
5.03067182
4.847035799
4.676532057
4.517203377
4.360938753
4.195358746
4.006914105
3.785265503
3.52760719
3.240645496
2.938576024
2.637874471
2.352311445
2.090485275
1.855945262
1.648726137
1.466909695
1.307736285
1.168280549
1.045772047
0.937741382
0.8420399083
0.756833235
0.6805690888
0.6119463253
0.5498925316
0.4935235351
0.4421228873
0.3950962751
0.3519579164
0.3123077316
0.2758385721
0.2423445715
0.2117317485
0.1839994832
0.1591988869
0.1373648307
0.1184619687
0.1023564176
0.08882510831
0.07758894066
0.06834954193
0.06081476838
0.05470385789
0.04972289817
8.504519667
8.370126779
8.206453185
7.937570607
7.660923825
7.380605975
7.088517277
6.766659772
6.393391365
5.954885848
5.454983661
4.916617543
4.373136399
3.855501471
3.383948038
2.966889699
2.604296821
2.291685034
2.022856421
1.791396282
1.591441221
1.417887657
1.266455745
1.133590292
1.016382221
0.9124333106
0.8197789936
0.7367872706
0.6621121707
0.594627025
0.5334059934
0.4776831341
0.4268313167
0.3803379638
0.3377876858
0.2988553405
0.2633007253
0.230970273
0.2017795988
0.1756849025
0.1526389955
0.1325507213
0.1152628186
0.1005500734
0.08813893732
0.07773252719
0.06903422169
0.06176332407
0.05565744175
0.05045924248
13.97483884
13.7502044
13.37194083
12.79536081
12.09254724
11.23791383
10.23332847
9.124914102
7.992941618
6.918431891
5.954447974
5.120719839
4.413906678
3.819789763
3.321135284
2.901494687
2.54660423
2.244681637
1.986118711
1.763200959
1.56976157
1.400848785
1.25249849
1.121495319
1.005247867
0.9016219561
0.8088677808
0.7255288872
0.6503901765
0.5824338205
0.520808332
0.4648097494
0.4138519278
0.3674609179
0.325251828
0.2869260786
0.2522559883
0.2210750163
0.1932498869
0.1686538797
0.1471348199
0.1284996497
0.112510455
0.09889502999
0.0873660671
0.07763929667
0.06944749236
0.06254836891
0.0567229861
0.05176010862
25.44094024
24.58518489
22.51335953
19.83300663
16.92843786
14.17588323
11.79014577
9.819383572
8.223723596
6.937518569
5.897355198
5.050377653
4.354877501
3.778600331
3.296775338
2.890389865
2.54483178
2.248763178
1.993292084
1.771436021
1.577632857
1.407436766
1.257249409
1.124140113
1.005704994
0.8999526069
0.8052185856
0.7201133802
0.6434583693
0.5742663981
0.5116997055
0.4550633365
0.4037764313
0.357363426
0.3154374423
0.2776845191
0.2438491606
0.2137127593
0.1870709124
0.1637108379
0.1433962985
0.1258646588
0.1108309186
0.09800093913
0.08708517916
0.07781003187
0.06992500661
0.06320639292
0.05745366917
0.05247776778
34.77353417
31.52881094
26.50277633
21.55567052
17.42587382
14.17387442
11.65069433
9.684498185
8.134545966
6.896463894
5.894728265
5.074525042
4.395591029
3.827947526
3.349014576
2.94161316
2.592546354
2.291474607
2.03025256
1.80241001
1.602719637
1.426962953
1.271658521
1.133951361
1.011455924
0.9021880823
0.8044634916
0.7168721983
0.6382117218
0.5674669972
0.5037796257
0.4464275176
0.3948075911
0.3484146528
0.306830445
0.2696961865
0.2367014561
0.2075576411
0.1819846658
0.1596939738
0.1403858559
0.1237519299
0.1094811675
0.09727207075
0.08684120791
0.07792971918
0.0703064547
0.06376898068
0.05813892461
0.05324994347
34.79389114
30.96908403
25.91042366
21.09756343
17.17450398
14.09251674
11.68202283
9.782748427
8.268540331
7.045698949
6.045994751
5.219593476
4.529642673
3.948475609
3.455062211
3.033244172
2.670392879
2.356518397
2.083678061
1.845448753
1.636604152
1.452864844
1.290675825
1.14708961
1.019631138
0.9062219809
0.8051012072
0.7147793045
0.6339931745
0.5616665619
0.4968929168
0.4389000115
0.3870390063
0.3407554455
0.2995761571
0.2630818593
0.2308933744
0.2026511347
0.1780067141
0.1566117963
0.1381224203
0.1222017773
0.1085266375
0.09679550578
0.08673324456
0.07809363492
0.07066000052
0.06424403169
0.05868059606
0.05381719677
34.31653587
30.66990594
25.84042583
21.23673084
17.44025986
14.41906042
12.02541608
10.11652327
8.578789968
7.326074124
6.294376622
5.436265715
4.716235475
4.10735188
3.588956447
3.144930645
2.762540054
2.431642827
2.144096193
1.893237299
1.673628391
1.48076335
1.31090063
1.160907206
1.028157478
0.910428494
0.8058462487
0.7128128371
0.629979999
0.5561917935
0.4904714188
0.4319834539
0.3800137071
0.3339451471
0.2932355862
0.2573973632
0.2259804549
0.1985603883
0.1747308943
0.1540997224
0.1362930397
0.1209575397
0.1077657268
0.09642020551
0.08665527723
0.07823676904
0.07096118269
0.06465313289
0.05915995484
0.05434153369
31.79810413
29.24254459
25.38744378
21.35964415
17.80795338
14.86671328
12.4776389
10.53950455
8.958733957
7.659305239
6.582023115
5.681618346
4.923458927
4.280858859
3.733009449
3.263455361
2.859099417
2.509450366
2.205961477
1.94162262
1.710681262
1.508339659
1.330615874
1.174150359
1.036135777
0.9141828321
0.8062808062
0.7107127104
0.626023119
0.5509688258
0.4844872937
0.4256681738
0.3737204735
0.3279551144
0.2877555382
0.2525649971
0.221867643
0.1951835726
0.1720610809
0.1520765712
0.1348372313
0.1199812598
0.107181588
0.09614678433
0.08662031949
0.07837838026
0.07122805177
0.0650037378
0.05956169145
0.0547706547
28.33735569
26.85210667
24.23753994
21.08886457
17.98950824
15.23575526
12.90072452
10.95517893
9.340217579
7.996764704
6.87395094
5.930341862
5.132938207
4.455540204
3.877283478
3.381448512
2.954600062
2.585841374
2.266196479
1.988293745
1.746025073
1.534297155
1.348851376
1.186104938
1.043041383
0.9171050313
0.8061308475
0.7082775766
0.6219721166
0.5458739131
0.4788258269
0.4198335068
0.3680235015
0.3226294693
0.2829621531
0.2483988232
0.2183666215
0.1923402928
0.1698337042
0.1504017889
0.1336400988
0.1191837924
0.1067088202
0.09593048306
0.08660073687
0.0785050956
0.07145972525
0.06530741348
0.05991212188
0.05515011479
25.13706326
24.2934095
22.65518678
20.39665719
17.88400397
15.43586798
13.22842862
11.31651437
9.6899175
8.31488166
7.153380292
6.170373475
5.335844129
4.624849351
4.016910285
3.495292718
3.046353066
2.658806215
2.323306198
2.032142589
1.778854435
1.558056704
1.365210918
1.196508727
1.048719724
0.9191156641
0.8053716366
0.7055154955
0.6178507079
0.5409297396
0.4734981673
0.4144691943
0.3628877884
0.3179094361
0.2787773995
0.2448090636
0.2153845047
0.1899420974
0.1679709417
0.1490118156
0.132653798
0.1185323913
0.1063279468
0.095762579
0.08659594766
0.07862161214
0.07166328509
0.06557051833
0.06021332574
0.05547386649
22.58435483
22.06598004
21.03228947
19.45994336
17.52276998
15.44795656
13.43569939
11.60360882
9.993466198
8.603386535
7.412940848
6.396322516
5.528176838
4.785792263
4.149642679
3.603318837
3.133080123
2.727378483
2.376585689
2.07265131
1.808804664
1.579370347
1.379539785
1.205276726
1.05313787
0.9202153596
0.8040252818
0.7024522408
0.6136780539
0.5361400379
0.4684853172
0.4095330284
0.358247602
0.3137104704
0.2751037874
0.2416933421
0.212821
0.1878968143
0.1663927092
0.1478406466
0.1318268625
0.1179891553
0.1060129418
0.09562691565
0.08659767676
0.07872579355
0.07184143281
0.06579988538
0.06047629873
0.05575779697
20.62958694
20.27426772
19.58451785
18.46811337
16.99838568
15.29485299
13.51874209
11.80780018
10.24355484
8.857058122
7.648974304
6.605592068
5.708057743
4.936982635
4.274461431
3.704753971
3.214197352
2.791129063
2.42572028
2.109612499
1.835757029
1.598186082
1.391842942
1.212448797
1.056360595
0.9204798497
0.8021655197
0.6991538467
0.6095024027
0.5315315472
0.4637893644
0.4050028593
0.3540598161
0.3099737534
0.2718732138
0.2389806811
0.2106077498
0.1861432126
0.1650473454
0.1468472162
0.1311286659
0.1175329389
0.1057507371
0.09551691491
0.08660427652
0.07881946499
0.07199812901
0.06600035734
0.06070553372
0.05600486818
19.13808847
18.86861347
18.37347426
17.54103044
16.40958537
15.02498982
13.49061515
11.9280982
10.43616885
9.072365414
7.859009138
6.796532273
5.874353348
5.077644224
4.390849253
3.799204593
3.289411898
2.849876865
2.470597937
2.142973631
1.859704412
1.614538996
1.402178982
1.218104921
1.058473699
0.9199947932
0.7998675223
0.695678738
0.6053603338
0.5271174737
0.4593990148
0.400846843
0.3502751602
0.3066391869
0.2690199895
0.2366054759
0.2086835373
0.1846273818
0.1638898936
0.1459956977
0.1305321883
0.1171446147
0.1055289357
0.09542553125
0.08661290354
0.07890296015
0.07213606238
0.06617640061
0.06090697095
0.05622245122
0.2664910208
0.2345163007
0.2070012999
0.1833086818
0.1628869854
0.145260177
0.1300183865
0.1168111251
0.105339412
0.09534868653
0.08662253156
0.07897745929
0.07225790016
0.06633155294
0.06108448201
0.05641429919
)
;

boundaryField
{
    front_top
    {
        type            wedge;
    }
    front_middle
    {
        type            wedge;
    }
    front_bottom
    {
        type            wedge;
    }
    back_top
    {
        type            wedge;
    }
    back_middle
    {
        type            wedge;
    }
    back_bottom
    {
        type            wedge;
    }
    axis_top
    {
        type            symmetryPlane;
    }
    axis_middle
    {
        type            symmetryPlane;
    }
    axis_bottom
    {
        type            symmetryPlane;
    }
    wall_top
    {
        type            calculated;
        value           nonuniform 0();
    }
    wall_middle
    {
        type            calculated;
        value           nonuniform List<scalar> 5(0.09067646902 0.09671244887 0.06176161259 0.08031912148 0.02374250343);
    }
    wall_bottom
    {
        type            calculated;
        value           nonuniform List<scalar> 
19
(
0.01895805441
0.04328213772
0.0362510914
0.04515885203
0.04445330167
0.04757948398
0.04817607483
0.04957335929
0.05026815296
0.05107247415
0.05164295048
0.05218250535
0.05261911909
0.05300806548
0.05333879304
0.0536295858
0.05388245827
0.05410542991
0.05430210348
)
;
    }
    inlet
    {
        type            calculated;
        value           nonuniform 0();
    }
    outlet
    {
        type            calculated;
        value           nonuniform 0();
    }
    procBoundary2to1
    {
        type            processor;
        value           nonuniform List<scalar> 
51
(
17.9894221
17.76872764
17.38729426
16.72951779
15.82881395
14.69271939
13.37681587
11.97141868
10.5708703
9.247176522
8.041097864
6.967743801
6.026182531
5.207277686
4.498449036
3.88642212
3.358572676
2.903533073
2.511191765
2.172766895
1.880710127
1.628518601
1.410651352
1.222355682
1.059584164
0.9188582862
0.7972115438
0.6920872646
0.6012870977
0.5229085322
0.4553031885
0.3970349712
0.3468510726
0.3036561722
0.3036561722
0.264239145
0.2326684515
0.2055211049
0.1821531227
0.1620109429
0.1446192507
0.1295715266
0.1165216291
0.1051753781
0.09528282759
0.08663210067
0.0790437598
0.0723657801
0.06646889778
0.0612418245
0.05658469162
)
;
    }
    procBoundary2to3
    {
        type            processor;
        value           nonuniform List<scalar> 
51
(
0.7454212884
0.7536504249
0.7536504249
0.7541601762
0.7450434488
0.7348972059
0.7231697559
0.7097729796
0.6950102702
0.6791768017
0.6625224866
0.6452783335
0.6276563513
0.6098494916
0.5920242105
0.574324457
0.5568691055
0.5397571009
0.5230628305
0.5068440358
0.4911368773
0.4759609929
0.461321199
0.4472091993
0.4336013727
0.4204628029
0.4077484634
0.3954011678
0.3833517609
0.3715220381
0.3598222258
0.3481504707
0.3363982362
0.3244456672
0.3121730425
0.299462105
0.2862162212
0.2723745851
0.2579380101
0.2429919563
0.2277144397
0.2123679219
0.1972664203
0.1827293667
0.169038047
0.1564102063
0.1449970293
0.1348972755
0.1261719727
0.1188411563
0.1128033385
)
;
    }
}


// ************************************************************************* //
