/*--------------------------------*- C++ -*----------------------------------*\
  =========                 |
  \\      /  F ield         | OpenFOAM: The Open Source CFD Toolbox
   \\    /   O peration     | Website:  https://openfoam.org
    \\  /    A nd           | Version:  7
     \\/     M anipulation  |
\*---------------------------------------------------------------------------*/
FoamFile
{
    version     2.0;
    format      ascii;
    class       volVectorField;
    location    "0.0009";
    object      grad(generalizedNewtonian:nu);
}
// * * * * * * * * * * * * * * * * * * * * * * * * * * * * * * * * * * * * * //

dimensions      [0 1 -1 0 0 0 0];

internalField   nonuniform List<vector> 
1167
(
(-640.1991942 0 -1444.73816)
(-715.0433885 4.166966829e-10 -2831.560699)
(-381.0767082 0 -2805.193989)
(-797.5262494 0 -2751.739297)
(-1550.667683 0 -2634.998522)
(-1801.758299 -5.15666669e-11 -2513.233312)
(-2106.956082 0 -2365.75737)
(-2403.129256 3.774186221e-11 -2197.354153)
(-2659.755247 0 -2014.119908)
(-2878.546355 0 -1819.736551)
(-3062.313966 0 -1617.430344)
(-3212.182105 0 -1410.29869)
(-3329.446376 0 -1201.135109)
(-3416.374046 0 -992.2398162)
(-3475.717216 0 -785.4995325)
(-3510.190991 -1.055954369e-11 -582.3782138)
(-3522.868554 -1.015474971e-11 -384.1212145)
(-3516.865795 0 -191.2980157)
(-3494.926374 0 -4.655868896)
(-3460.431178 0 175.8111973)
(-3416.52754 -9.011478556e-12 350.1432339)
(-3365.452164 0 518.2594889)
(-3310.291726 8.634426345e-12 680.6169013)
(-3253.787745 8.479916219e-12 837.6696378)
(-3198.087527 8.344416676e-12 989.6444996)
(-3145.82113 0 1137.120699)
(-3099.676019 -8.122057424e-12 1280.723463)
(-3062.106438 4.015900765e-12 1420.914911)
(-3035.723009 0 1558.288914)
(-3023.644159 0 1693.628089)
(-3028.845356 3.914626408e-12 1827.605498)
(-3054.606995 0 1961.042721)
(-3104.379587 0 2094.891692)
(-3181.208147 7.709584675e-12 2229.943697)
(-3287.558049 0 2366.95989)
(-3424.004668 0 2506.064034)
(-3587.456452 -3.827513537e-12 2646.210054)
(-3769.599525 0 2784.411424)
(-3954.893377 0 2914.723158)
(-4120.188843 -1.913392543e-12 3027.865162)
(-4238.487265 3.831683847e-12 3112.1827)
(-4284.996575 -3.838940739e-12 3156.007491)
(-4244.769628 1.924224513e-12 3151.143358)
(-4118.827072 0 3096.176415)
(-3925.247296 1.936924276e-12 2997.772032)
(-3694.896622 0 2869.134206)
(-3463.109365 -9.768090521e-13 2725.816349)
(-3260.857369 -9.816900741e-13 2580.917562)
(-3108.337156 0 2441.815646)
(-3004.426084 0 2305.25996)
(-2852.552368 0 2116.984761)
(-813.8109026 0 -4764.106258)
(-463.7324017 0 -4717.041307)
(-959.704609 0 -4651.573505)
(-1832.418745 0 -4494.025091)
(-2138.96974 0 -4327.624341)
(-2502.6547 -4.713125668e-11 -4127.859805)
(-2854.942735 0 -3900.689783)
(-3161.296987 0 -3653.951027)
(-3423.401602 0 -3392.922205)
(-3644.471951 0 -3122.22795)
(-3825.989062 0 -2846.235069)
(-3969.697332 2.662708457e-11 -2568.853507)
(-4078.251517 0 -2293.299235)
(-4155.099933 0 -2022.342059)
(-4203.283943 0 -1758.044811)
(-4226.727221 0 -1501.923412)
(-4228.867738 0 -1255.032247)
(-4213.038018 -1.03255863e-11 -1018.019115)
(-4183.138385 0 -790.8568494)
(-4141.938922 0 -573.5812414)
(-4092.598883 0 -365.6332581)
(-4038.053143 9.380933565e-12 -166.3155133)
(-3980.410681 0 25.06787403)
(-3922.263189 9.065850501e-12 209.5091738)
(-3866.037475 0 388.0678284)
(-3813.383848 0 561.6085073)
(-3766.585217 0 731.1027092)
(-3727.998293 -8.641297262e-12 897.6080461)
(-3699.518068 0 1061.92868)
(-3683.679605 -4.253073528e-12 1224.882127)
(-3683.023693 0 1387.338753)
(-3700.110878 4.205407431e-12 1549.945594)
(-3737.577503 -4.188066429e-12 1713.334341)
(-3797.644954 0 1877.924193)
(-3881.534676 0 2043.695724)
(-3988.106406 0 2209.822579)
(-4111.84941 -2.077608381e-12 2373.840362)
(-4241.133876 2.07750394e-12 2530.943047)
(-4356.435065 -2.078818853e-12 2673.147796)
(-4430.884732 0 2789.01488)
(-4436.04954 -2.085422171e-12 2865.566845)
(-4349.060555 -2.090587332e-12 2890.821443)
(-4158.161888 0 2856.237582)
(-3862.511212 -1.05219253e-12 2757.473482)
(-3465.480587 -1.056465059e-12 2592.9311)
(-2967.797184 0 2362.478121)
(-2368.468642 0 2068.641032)
(-1677.578208 0 1720.130976)
(-951.4387663 0 1345.268828)
(-470.176107 -1.085377095e-12 1095.485077)
(-982.3965852 -4.936315227e-10 -7649.711495)
(-604.8490941 -1.686914579e-10 -7576.617197)
(-1205.547172 0 -7491.250016)
(-2246.687789 0 -7267.637071)
(-2629.799482 6.108743687e-11 -7027.360194)
(-3075.918122 0 -6741.701006)
(-3505.245197 0 -6419.060383)
(-3877.883033 -3.984104618e-11 -6070.72385)
(-4195.078984 -3.614413238e-11 -5704.875024)
(-4460.548342 0 -5328.702798)
(-4676.199041 0 -4948.843029)
(-4844.473971 -2.903313204e-11 -4571.094536)
(-4968.379913 0 -4200.24129)
(-5052.300033 2.613921357e-11 -3840.06899)
(-5100.762087 -2.501831116e-11 -3493.37649)
(-5118.178601 1.202962429e-11 -3161.730488)
(-5109.407295 0 -2846.117718)
(-5078.970528 0 -2546.458729)
(-5031.612186 0 -2261.982715)
(-4971.962699 1.067527067e-11 -1991.368046)
(-4903.664798 0 -1732.782577)
(-4830.708385 0 -1484.249532)
(-4756.675066 0 -1243.500222)
(-4684.068811 9.885048965e-12 -1008.527697)
(-4615.757502 0 -777.4749865)
(-4553.831876 -9.621635355e-12 -548.7469449)
(-4500.031712 0 -321.186087)
(-4456.31665 0 -93.84056966)
(-4423.942928 0 133.7163915)
(-4404.425114 -4.637385087e-12 361.844238)
(-4399.417707 0 590.7839567)
(-4410.251456 4.58541183e-12 820.5413736)
(-4438.587612 4.566503885e-12 1051.342942)
(-4485.736809 -4.551854034e-12 1283.24951)
(-4552.656804 0 1516.324473)
(-4638.920061 -4.534188591e-12 1750.170358)
(-4741.374453 0 1983.47664)
(-4852.555436 -2.265229096e-12 2213.357431)
(-4957.635798 4.533325601e-12 2433.951645)
(-5033.326747 0 2635.696169)
(-5049.430447 -2.273862789e-12 2805.338315)
(-4976.453363 0 2928.195463)
(-4799.951982 -2.28640362e-12 2994.127252)
(-4535.534127 2.294539183e-12 3005.480448)
(-4236.442963 1.151928209e-12 2983.318946)
(-3980.786164 0 2962.770963)
(-3827.002766 -1.162939821e-12 2966.635532)
(-3756.301383 1.169258966e-12 2966.80448)
(-3673.282369 -5.880503968e-13 2880.610001)
(-3381.327065 0 2563.797811)
(-1204.551123 0 -11887.17173)
(-798.5302749 -1.846553567e-10 -11769.48444)
(-1593.051118 1.138672091e-10 -11643.25981)
(-2909.233082 0 -11308.48957)
(-3415.181384 0 -10943.30591)
(-3987.345954 0 -10513.49416)
(-4530.06935 4.8941242e-11 -10030.40357)
(-4995.608125 0 -9510.983851)
(-5385.615203 -3.95645858e-11 -8967.70777)
(-5705.010077 0 -8411.542293)
(-5957.184684 3.385609801e-11 -7852.306022)
(-6146.559641 0 -7298.295053)
(-6278.511972 -3.005893583e-11 -6756.127534)
(-6359.471163 0 -6230.676671)
(-6397.359447 0 -5725.270497)
(-6399.732401 -2.63360646e-11 -5241.854993)
(-6373.670795 0 -4781.439382)
(-6326.950788 -2.464812055e-11 -4343.890684)
(-6266.344538 -1.198316389e-11 -3928.961375)
(-6198.319599 0 -3536.117033)
(-6128.119586 0 -3164.942777)
(-6059.653006 0 -2815.438613)
(-5996.227851 -1.099621504e-11 -2487.707733)
(-5939.223636 0 -2182.431961)
(-5889.632832 0 -1899.820543)
(-5847.361292 0 -1640.300178)
(-5811.847827 0 -1403.359867)
(-5782.717424 0 -1187.838812)
(-5759.499554 1.022665714e-11 -991.5242173)
(-5742.727067 0 -810.9364891)
(-5733.074544 0 -641.6108525)
(-5732.379875 0 -477.9664911)
(-5742.950685 -4.998649078e-12 -313.6237057)
(-5767.064182 -4.982612888e-12 -142.1435198)
(-5806.995676 4.970916034e-12 42.86835419)
(-5863.900643 0 246.6141291)
(-5936.684453 2.479720755e-12 472.6018035)
(-6020.506556 0 721.5767064)
(-6104.553652 -2.481165548e-12 990.8639)
(-6168.951656 -2.484341679e-12 1273.12097)
(-6182.44329 2.489046886e-12 1555.487233)
(-6102.645301 -2.495211752e-12 1818.826302)
(-5884.72601 1.251387238e-12 2039.545321)
(-5494.560266 0 2193.419811)
(-4910.040456 0 2254.137895)
(-4091.949066 -1.266663703e-12 2175.398787)
(-2945.093704 6.364965666e-13 1874.700756)
(-1340.74214 6.399551376e-13 1272.227188)
(742.5978511 -6.436997928e-13 372.8260914)
(2067.039075 1.943170914e-12 -159.7581199)
(-1595.456103 -1.188036878e-09 -18804.94936)
(-1165.724169 0 -18604.29634)
(-2254.132075 0 -18368.25297)
(-3991.712125 0 -17792.15368)
(-4691.437059 0 -17158.9413)
(-5464.951843 0 -16422.31387)
(-6189.220464 0 -15605.95699)
(-6803.197581 -4.79432835e-11 -14741.96009)
(-7310.070296 0 -13854.247)
(-7716.788312 0 -12962.98038)
(-8029.337144 3.721903636e-11 -12085.54116)
(-8255.27258 0 -11235.93056)
(-8403.588545 -6.608940136e-11 -10424.91074)
(-8484.001553 0 -9660.486443)
(-8506.312496 3.010613677e-11 -8948.716432)
(-8479.894875 2.895203535e-11 -8294.61894)
(-8413.452207 2.79577724e-11 -7702.245276)
(-8313.09037 0 -7175.87931)
(-8183.265619 0 -6720.384402)
(-8028.151675 0 -6340.083973)
(-7849.688488 2.511964423e-11 -6039.118183)
(-7650.157216 0 -5820.13276)
(-7432.074317 -1.208847299e-11 -5683.394601)
(-7199.552627 1.189531293e-11 -5626.050526)
(-6958.204884 1.172613879e-11 -5641.399112)
(-6715.707716 0 -5719.16005)
(-6481.826848 0 -5845.283546)
(-6267.232399 0 -6003.417956)
(-6083.638112 0 -6175.310794)
(-5942.830233 -1.116092527e-11 -6341.964262)
(-5855.965386 0 -6484.013605)
(-5832.518406 1.65537596e-11 -6581.970834)
(-5879.63754 0 -6615.806341)
(-6000.971053 0 -6564.856804)
(-6195.828256 -5.464678881e-12 -6408.200278)
(-6458.818139 -5.456279677e-12 -6126.387038)
(-6780.090456 5.452064596e-12 -5704.111661)
(-7146.457225 -5.451790542e-12 -5133.605443)
(-7542.591509 -5.455241304e-12 -4418.381169)
(-7951.078223 0 -3575.718481)
(-8348.995625 0 -2635.909522)
(-8698.480273 -5.486124074e-12 -1635.549062)
(-8945.021459 2.751375957e-12 -603.800256)
(-9029.223691 1.380583009e-12 444.2181633)
(-8895.909438 0 1481.58364)
(-8533.934144 -1.392481866e-12 2450.142632)
(-8135.757032 0 3363.511918)
(-8027.147113 0 4359.599253)
(-7821.692768 0 5240.303748)
(-6217.44167 7.120622586e-13 5210.58028)
(-2069.433609 0 -28682.93457)
(-1744.760066 0 -28338.5094)
(-3345.238374 0 -28082.59248)
(-5667.215088 0 -27396.01518)
(-6645.561503 -1.296415651e-10 -26614.43141)
(-7689.532881 0 -25725.43485)
(-8621.164312 -9.488521138e-11 -24757.94311)
(-9369.095698 0 -23751.81008)
(-9945.591546 7.67061466e-11 -22741.50549)
(-10365.10927 0 -21754.72869)
(-10640.86407 -6.563877168e-11 -20815.2057)
(-10788.24951 0 -19942.81704)
(-10822.91148 0 -19154.54379)
(-10759.12461 0 -18465.70393)
(-10608.76697 0 -17890.8011)
(-10381.49078 5.105924881e-11 -17442.90088)
(-10084.7429 4.930578596e-11 -17133.10573)
(-9722.882751 0 -16968.78274)
(-9300.380364 0 -16950.621)
(-8825.00272 0 -17068.57252)
(-8306.279126 0 -17300.33192)
(-7758.444019 0 -17607.70596)
(-7200.156857 0 -17936.40669)
(-6653.226831 0 -18216.33746)
(-6141.213176 0 -18365.54004)
(-5686.901313 0 -18297.53202)
(-5310.507253 -1.009620547e-11 -17932.08478)
(-5027.690904 0 -17209.2045)
(-4850.019089 -1.982701098e-11 -16103.15119)
(-4787.11968 0 -14632.73975)
(-4849.799041 0 -12863.4776)
(-5054.569866 0 -10898.25974)
(-5425.400599 0 -8858.319778)
(-5990.983941 0 -6860.153776)
(-6775.676036 0 -4997.702237)
(-7785.538841 0 -3333.764377)
(-8994.707125 0 -1901.435106)
(-10333.83278 0 -710.4185844)
(-11690.98374 0 245.4564509)
(-12938.73854 0 983.0768636)
(-14002.14828 0 1525.898593)
(-14927.34795 4.837611092e-12 1897.439523)
(-15845.16481 0 2111.470981)
(-16751.25046 0 2164.6882)
(-17268.49353 0 2046.882831)
(-16832.0487 0 1766.723967)
(-15368.11894 0 1351.140226)
(-13358.81665 0 788.4969105)
(-10697.68141 0 39.99311784)
(-6936.683125 0 -775.2505657)
(-2628.699452 0 -40336.79662)
(-2366.057024 0 -39791.99851)
(-4335.321151 0 -39277.8311)
(-7137.818203 0 -38123.88307)
(-8336.966313 0 -36800.50325)
(-9589.524886 0 -35324.23416)
(-10660.58369 0 -33756.86312)
(-11468.91716 0 -32169.03752)
(-12035.63272 0 -30622.05669)
(-12383.80738 0 -29166.63009)
(-12531.28728 0 -27844.73565)
(-12496.43932 0 -26691.78116)
(-12295.07871 0 -25736.97188)
(-11939.35281 -5.547341208e-11 -25002.06303)
(-11440.71698 0 -24497.29402)
(-10812.50042 2.552962441e-11 -24217.1066)
(-10072.67159 0 -24134.97302)
(-9248.238983 0 -24198.95359)
(-8383.254408 0 -24327.42624)
(-7538.695793 0 -24412.04886)
(-6791.222396 0 -24325.86871)
(-6233.695161 0 -23935.93609)
(-5966.404376 0 -23126.7488)
(-6087.126777 0 -21820.26564)
(-6671.392953 0 -19997.11556)
(-7751.382471 0 -17702.17785)
(-9292.898431 0 -15038.34277)
(-11178.69905 0 -12143.39393)
(-13211.77172 0 -9164.560438)
(-15142.73193 -9.841595743e-12 -6233.637223)
(-16723.90177 0 -3455.996577)
(-17774.3117 0 -907.4360203)
(-18228.6731 0 1359.81121)
(-18143.00695 0 3311.907736)
(-17657.24173 0 4927.499503)
(-16937.09101 0 6196.063805)
(-16124.53909 0 7117.086013)
(-15313.68836 0 7701.634219)
(-14552.25254 0 7974.002649)
(-13856.71078 0 7972.002948)
(-13219.73822 0 7739.61175)
(-12597.04006 0 7307.653601)
(-11888.3478 0 6671.967864)
(-10958.82931 0 5797.201492)
(-9711.443584 0 4670.452138)
(-8133.676496 -1.227877028e-12 3373.286204)
(-6274.742891 0 2073.725116)
(-4243.669976 0 902.0300088)
(-2257.271073 0 -87.1801265)
(-901.549036 0 -752.9251399)
(-3461.465606 0 -57397.81519)
(-3599.536076 0 -56543.52589)
(-6422.134969 0 -55581.73522)
(-10115.22037 0 -53662.51832)
(-11751.12018 0 -51477.71784)
(-13329.65109 0 -49112.68251)
(-14567.51978 0 -46696.78142)
(-15381.48168 0 -44362.45117)
(-15807.86163 0 -42220.58656)
(-15886.47243 0 -40358.86585)
(-15650.39815 0 -38838.76305)
(-15131.89681 0 -37691.27216)
(-14367.15559 0 -36909.43927)
(-13404.47271 -5.547341208e-11 -36438.45051)
(-12310.82682 0 -36166.54391)
(-11176.41575 5.105924881e-11 -35922.69551)
(-10117.13448 0 -35484.28625)
(-9274.000786 0 -34600.30548)
(-8800.78268 0 -33033.258)
(-8838.379649 0 -30618.38967)
(-9487.71823 0 -27313.86018)
(-10769.77257 0 -23229.84176)
(-12599.06257 0 -18611.57507)
(-14777.41323 0 -13782.57395)
(-17020.96219 0 -9075.134939)
(-19023.59274 0 -4772.090043)
(-20532.93815 0 -1078.757743)
(-21407.58272 0 1884.684602)
(-21634.2369 0 4077.537591)
(-21300.37709 -9.841595743e-12 5529.933483)
(-20543.42862 0 6330.255872)
(-19508.47342 0 6606.728204)
(-18324.77661 0 6503.960027)
(-17100.57977 0 6158.464385)
(-15922.63993 0 5681.637559)
(-14856.62829 0 5152.29518)
(-13943.71679 0 4619.48774)
(-13197.66006 0 4108.820253)
(-12602.49623 0 3629.355398)
(-12108.84639 0 3177.105589)
(-11629.94064 0 2737.10216)
(-11049.57357 0 2287.917059)
(-10258.355 0 1813.246434)
(-9212.087117 0 1316.846557)
(-7973.448889 0 827.6267719)
(-6696.340742 -1.227877028e-12 388.9746041)
(-5547.276801 0 44.25180222)
(-4613.106267 0 -170.2050184)
(-3883.4749 0 -234.8217474)
(-3228.367336 0 -158.2952379)
(-4811.522781 0 -84644.24305)
(-5600.466088 0 -83249.50097)
(-9614.577602 0 -81516.81803)
(-14503.83026 0 -78403.36515)
(-16624.37815 0 -74984.40138)
(-18437.65731 0 -71496.18565)
(-19600.84307 0 -68197.58483)
(-20040.9901 0 -65311.59644)
(-19838.69136 0 -62971.03462)
(-19092.19502 0 -61209.04165)
(-17916.27296 0 -59947.39382)
(-16458.91761 0 -58987.83992)
(-14912.64835 0 -58016.49612)
(-13520.54432 -5.547341208e-11 -56631.16102)
(-12566.71972 0 -54404.20596)
(-12344.5917 5.105924881e-11 -50981.39468)
(-13101.26156 0 -46193.67142)
(-14956.93515 0 -40133.84768)
(-17814.69489 0 -33155.9755)
(-21319.76875 0 -25781.32682)
(-24907.09994 0 -18559.69331)
(-27950.46514 0 -11958.28909)
(-29966.07437 0 -6298.620059)
(-30752.1402 0 -1751.350036)
(-30400.57094 0 1650.883865)
(-29194.52521 0 3984.120668)
(-27469.61147 0 5403.535329)
(-25513.96217 0 6104.19224)
(-23527.8414 0 6288.301411)
(-21628.7096 -1.968319149e-11 6135.017424)
(-19872.0977 0 5787.920374)
(-18276.67883 0 5350.82679)
(-16844.03723 0 4893.400546)
(-15571.58574 0 4457.28894)
(-14457.27479 0 4063.102522)
(-13498.07388 0 3715.62245)
(-12683.55755 0 3408.217827)
(-11987.50795 0 3126.199881)
(-11363.11522 0 2849.557266)
(-10744.26469 0 2556.283456)
(-10058.30892 0 2228.029355)
(-9249.525287 0 1858.15758)
(-8303.638254 0 1458.563628)
(-7253.332857 0 1058.115499)
(-6159.588385 0 691.211273)
(-5081.128226 -1.227877028e-12 381.8028457)
(-4058.127058 0 133.8785698)
(-3121.203208 0 -64.88093703)
(-2314.34626 0 -228.7435737)
(-1764.679551 0 -364.1332071)
(-7025.218035 0 -130387.2786)
(-9220.563464 1.432008002e-09 -127964.7962)
(-15248.08142 0 -124667.6051)
(-21818.91538 0 -119519.3643)
(-24302.83635 0 -114310.3816)
(-25857.8981 2.181230935e-10 -109532.4319)
(-26174.2481 -1.897704228e-10 -105490.7653)
(-25359.37983 0 -102222.9923)
(-23777.93066 0 -99444.9491)
(-21868.30238 1.411272662e-10 -96599.8024)
(-20134.89667 -1.312775434e-10 -92951.22469)
(-19125.16185 0 -87742.58336)
(-19360.44354 0 -80422.71041)
(-21213.42303 0 -70870.56735)
(-24741.89227 0 -59502.18435)
(-29553.53087 5.105924881e-11 -47171.94793)
(-34816.86879 4.930578596e-11 -34904.65537)
(-39480.41254 4.778673421e-11 -23624.30636)
(-42642.7281 0 -13990.77296)
(-43871.84368 0 -6351.019783)
(-43264.91832 0 -767.0481048)
(-41274.95699 0 2932.051201)
(-38456.25679 0 5076.397138)
(-35282.25777 0 6065.620165)
(-32082.43647 0 6286.156434)
(-29053.78205 0 6053.781014)
(-26296.55266 0 5594.425087)
(-23847.41821 0 5051.730368)
(-21704.35411 0 4507.996138)
(-19842.23229 0 4005.395936)
(-18226.44702 0 3561.548777)
(-16819.97785 0 3181.213222)
(-15590.71708 0 2861.337716)
(-14513.20196 0 2595.281874)
(-13568.2871 4.818700871e-12 2372.849043)
(-12738.43123 0 2181.705013)
(-12000.69411 0 2006.8829)
(-11320.29903 -4.807336091e-12 1832.521768)
(-10650.00798 0 1643.537985)
(-9938.486464 0 1429.674438)
(-9146.000733 2.412829394e-12 1188.928742)
(-8261.027009 0 930.0244614)
(-7305.908514 0 669.9033346)
(-6328.684017 0 428.033818)
(-5385.670881 0 220.3130748)
(-4524.311222 0 56.30091171)
(-3773.577366 0 -59.75795081)
(-3145.723376 0 -127.2732409)
(-2649.635057 0 -149.3716027)
(-2277.393826 0 -134.5382505)
(-11001.28897 0 -216430.641)
(-15966.51038 0 -212460.4489)
(-24864.48961 0 -206804.8351)
(-32984.71429 0 -199094.5248)
(-34695.84476 0 -191693.7857)
(-34658.15942 0 -184592.3256)
(-33287.68635 0 -177045.6814)
(-31596.6383 0 -167800.54)
(-30839.28357 -1.534122932e-10 -155526.0419)
(-32093.67386 1.411272662e-10 -139399.8201)
(-36011.86207 0 -119608.4567)
(-42517.39999 0 -97425.59239)
(-50609.93868 0 -74773.37482)
(-58542.36189 -1.109468242e-10 -53555.57643)
(-64450.23988 0 -35181.12872)
(-67141.90329 0 -20413.81007)
(-66492.84061 0 -9434.015113)
(-63227.81719 0 -1965.097591)
(-58401.36385 0 2585.49086)
(-52950.69382 0 4959.680224)
(-47509.23132 0 5879.230203)
(-42428.32494 0 5936.929881)
(-37860.41611 0 5552.087355)
(-33840.84055 0 4990.659183)
(-30345.40612 0 4402.278289)
(-27324.89046 0 3862.797365)
(-24723.3758 0 3401.55331)
(-22485.04912 0 3023.957481)
(-20557.84948 0 2721.859131)
(-18892.62437 -1.968319149e-11 2483.25253)
(-17445.09099 -9.781168704e-12 2294.603293)
(-16176.1091 0 2143.827043)
(-15053.24524 0 2020.161963)
(-14050.33124 -9.660079362e-12 1913.859271)
(-13144.683 0 1815.505586)
(-12314.05789 0 1715.182841)
(-11531.72449 0 1602.845489)
(-10765.55621 0 1469.249382)
(-9982.306585 0 1308.722933)
(-9156.712511 0 1121.522433)
(-8281.16239 0 915.2421009)
(-7369.575418 0 703.3063887)
(-6452.114184 0 501.0346359)
(-5564.732601 0 321.3899631)
(-4737.881386 0 171.96709)
(-3990.570839 0 54.55066358)
(-3330.748165 0 -33.52789969)
(-2760.616677 0 -97.19486135)
(-2286.422248 0 -142.0956227)
(-1940.550169 0 -174.5809058)
(-17169.5895 8.380795319e-09 -410193.3148)
(-26737.27213 0 -403267.156)
(-39176.21848 1.766087453e-09 -389041.638)
(-48711.34833 0 -369131.544)
(-50591.93892 5.185662604e-10 -343508.5672)
(-53002.88171 0 -310362.1005)
(-57992.10078 0 -269314.6335)
(-66954.15994 0 -222419.1022)
(-79649.89425 3.068245864e-10 -173786.9121)
(-93716.96907 0 -127874.6569)
(-105503.75 0 -87954.46141)
(-111862.2931 0 -55690.2867)
(-111676.3617 1.165539884e-10 -31432.05873)
(-105999.3664 -1.109468242e-10 -14609.12866)
(-96981.6794 0 -4024.489394)
(-86680.78956 0 1854.066813)
(-76482.06476 0 4563.512019)
(-67106.38894 0 5381.490422)
(-58834.50243 0 5218.328206)
(-51697.22588 0 4637.215169)
(-45607.48998 0 3948.228329)
(-40435.46954 -2.170744419e-11 3303.045505)
(-36043.97572 0 2761.889711)
(-32306.17435 0 2339.261522)
(-29112.11285 0 2026.208974)
(-26370.3322 0 1805.971297)
(-24005.61688 0 1658.606372)
(-21956.41446 0 1565.217389)
(-20171.76117 0 1508.945615)
(-18608.28624 -9.841595743e-12 1475.625241)
(-17227.529 0 1454.209979)
(-15996.8543 0 1435.689288)
(-14887.66925 0 1413.547977)
(-13875.32823 0 1381.767859)
(-12936.86026 0 1335.304419)
(-12049.29763 0 1269.082652)
(-11188.32704 0 1179.129189)
(-10330.36111 0 1063.477759)
(-9457.859569 -2.405189498e-12 924.0930836)
(-8564.622215 0 767.2801727)
(-7659.000872 0 603.2033529)
(-6761.300562 0 443.2590456)
(-5897.729013 -1.213068337e-12 297.5756842)
(-5093.032084 0 173.06938)
(-4365.167793 -1.222328066e-12 72.95206078)
(-3723.823128 -1.227877028e-12 -2.517800515)
(-3171.448218 0 -54.8975219)
(-2706.856298 0 -86.6800264)
(-2330.849551 0 -100.9564103)
(-2044.766173 0 -101.8605224)
(-28698.55039 0 -846821.0284)
(-55660.80868 0 -810752.9054)
(-86078.4992 -1.766087453e-09 -715345.3173)
(-115201.5636 0 -594771.8013)
(-142493.8366 0 -463375.7017)
(-172844.0543 0 -339763.8627)
(-199597.0489 0 -235081.4247)
(-215102.9602 0 -152636.19)
(-215453.9831 0 -91516.61155)
(-202576.5479 2.822545324e-10 -49131.63603)
(-181915.3535 0 -22118.57684)
(-158801.5061 0 -6688.005462)
(-136634.0025 0 912.944907)
(-116950.7805 -1.109468242e-10 3845.056999)
(-100148.4673 0 4358.634985)
(-86078.50018 1.021184976e-10 3824.991708)
(-74385.68711 0 2973.252063)
(-64684.50619 0 2146.09281)
(-56623.56855 0 1478.216856)
(-49895.40828 0 998.0130907)
(-44248.2382 0 690.4182193)
(-39477.45549 0 522.5445038)
(-35419.59447 0 460.3168067)
(-31943.42815 0 472.5089492)
(-28944.62591 0 533.8613476)
(-26341.47856 0 624.0351825)
(-24067.42161 0 728.0203976)
(-22069.73562 0 833.6945183)
(-20304.54902 0 932.6900678)
(-18734.82766 -9.841595743e-12 1018.031342)
(-17327.48044 0 1085.314398)
(-16053.76007 0 1130.989879)
(-14887.69389 0 1152.744266)
(-13805.54926 0 1148.726891)
(-12785.58953 0 1117.512172)
(-11807.19532 0 1058.541068)
(-10852.15985 0 972.5782365)
(-9907.152977 0 862.8756863)
(-8967.098221 0 735.4343217)
(-8036.740491 0 598.7032328)
(-7129.529418 0 462.1348458)
(-6263.363938 0 334.3031234)
(-5456.163222 0 221.595)
(-4721.470947 0 127.456714)
(-4066.558283 0 52.68790761)
(-3492.807997 0 -3.87523406)
(-2997.179476 0 -44.53924572)
(-2574.961251 0 -72.1534427)
(-2224.500104 0 -89.81137112)
(-1955.136921 0 -100.9262651)
(-109328.4643 0 -1039934.766)
(-278144.9657 0 -888930.327)
(-423934.2159 0 -656541.7751)
(-499977.2038 0 -438015.4857)
(-512497.3395 0 -266666.3291)
(-472883.7141 0 -146798.0295)
(-408124.6887 0 -70868.29286)
(-340414.9339 0 -27979.20416)
(-280361.6988 0 -7080.217396)
(-230690.7361 0 1098.399842)
(-190747.1474 0 2985.985433)
(-158912.1116 0 2309.739838)
(-133540.704 0 915.782426)
(-113233.6844 -1.109468242e-10 -407.8881289)
(-96870.62743 0 -1393.964596)
(-83574.52514 1.021184976e-10 -2005.923604)
(-72672.59185 0 -2297.106177)
(-63658.17493 0 -2339.648494)
(-56140.05739 4.646490293e-11 -2206.692469)
(-49815.65392 4.531075074e-11 -1960.452541)
(-44452.22944 0 -1647.90335)
(-39867.79324 0 -1305.708436)
(-35920.94335 2.131899682e-11 -958.0015551)
(-32499.06438 0 -622.8020932)
(-29513.04268 -2.067999104e-11 -310.4028651)
(-26892.49257 0 -28.30631141)
(-24579.39112 0 220.2144637)
(-22526.66717 0 432.8344454)
(-20694.665 0 608.9227378)
(-19049.0655 0 748.3411638)
(-17559.4989 9.781168704e-12 851.4353125)
(-16198.20714 0 919.1115899)
(-14940.63766 0 952.2168383)
(-13764.04642 9.660079362e-12 952.3132553)
(-12648.84975 0 921.0691489)
(-11578.66163 0 861.4946061)
(-10541.65156 0 777.7266113)
(-9532.404862 0 675.8687579)
(-8552.743198 0 563.2610513)
(-7611.083498 0 447.9952987)
(-6719.555598 0 337.448198)
(-5890.879881 1.209402773e-12 237.3859935)
(-5135.394763 0 151.464376)
(-4458.991811 0 81.14796219)
(-3863.033435 0 26.24295934)
(-3345.193342 0 -14.52112557)
(-2900.632728 0 -42.94811671)
(-2523.96954 0 -61.03058846)
(-2212.430194 -6.239889687e-13 -70.79692554)
(-1967.515499 0 -74.49174226)
(-414535.075 0 -467647.5454)
(-758115.7678 0 -319194.9572)
(-873667.6543 0 -169853.2065)
(-802064.1143 0 -63227.84004)
(-663830.9328 0 -12303.30603)
(-529551.4387 0 4168.324368)
(-419874.3466 0 5406.146794)
(-335390.9401 0 1831.757267)
(-271177.9415 3.068245864e-10 -2240.836778)
(-222110.2981 0 -5409.019015)
(-184175.9026 -2.625550867e-10 -7431.977664)
(-154468.7151 -2.464598854e-10 -8460.79115)
(-130913.9927 0 -8738.258587)
(-112015.9401 0 -8493.763917)
(-96678.03792 0 -7914.343669)
(-84086.29148 1.021184976e-10 -7142.715374)
(-73643.15937 9.861157192e-11 -6278.054978)
(-64903.92977 0 -5387.760986)
(-57523.5926 0 -4519.298863)
(-51240.66562 0 -3700.636597)
(-45851.40868 0 -2948.564792)
(-41197.10862 0 -2271.403893)
(-37152.94021 0 -1671.320777)
(-33617.59844 0 -1147.474838)
(-30510.04351 0 -696.30721)
(-27764.74711 0 -313.4686991)
(-25327.35819 -2.019241095e-11 5.868919281)
(-23151.52093 0 266.7037858)
(-21198.8518 -9.913505491e-12 473.2597408)
(-19434.81089 0 629.9918135)
(-17829.21008 0 740.3394347)
(-16354.76531 0 808.166252)
(-14987.62807 0 836.8712517)
(-13706.79265 0 830.3990219)
(-12495.53851 0 793.0642607)
(-11341.85628 0 730.1329932)
(-10238.89484 0 647.7893096)
(-9185.781608 0 553.0812285)
(-8186.630495 0 453.209912)
(-7249.122767 0 354.9520775)
(-6381.39545 0 263.6939135)
(-5590.490366 1.209402773e-12 183.1440748)
(-4880.430972 -1.213068337e-12 115.2140554)
(-4251.473733 0 60.27166786)
(-3700.824891 0 17.59673024)
(-3223.41441 0 -14.18015283)
(-2812.786656 0 -36.7496958)
(-2462.581532 6.203589913e-13 -51.88193862)
(-2169.267119 0 -61.34634468)
(-1935.877072 0 -66.97144942)
(-488644.6678 0 22849.91509)
(-802910.9474 0 42945.25008)
(-862784.5913 0 33117.52513)
(-771014.7087 0 15946.98418)
(-629892.212 0 -719.3018402)
(-503762.6813 0 -12259.29993)
(-403203.0884 0 -18736.0876)
(-325690.4047 0 -21601.25406)
(-266284.6148 0 -22212.20013)
(-220444.3856 0 -21480.5115)
(-184630.4439 0 -19982.41783)
(-156265.9964 0 -18087.03365)
(-133507.5075 0 -16032.2223)
(-115024.3199 -1.109468242e-10 -13970.21774)
(-99837.29752 0 -11997.09355)
(-87225.81394 1.021184976e-10 -10165.87426)
(-76657.73327 0 -8499.685005)
(-67724.38391 0 -7008.411018)
(-60112.59566 0 -5692.181651)
(-53582.84424 0 -4541.364466)
(-47944.02418 0 -3545.437686)
(-43046.68752 0 -2690.019847)
(-38770.68449 0 -1962.105425)
(-35017.61914 0 -1347.792272)
(-31707.76972 0 -835.077657)
(-28774.93028 0 -412.0205873)
(-26163.85265 0 -69.13785572)
(-23826.89081 0 202.9680575)
(-21724.01083 0 411.5861387)
(-19819.62982 -9.841595743e-12 563.7601831)
(-18082.69529 0 665.4103448)
(-16486.21077 0 722.2031815)
(-15006.8841 0 739.6941993)
(-13625.83255 0 723.4752839)
(-12328.91916 0 679.7429417)
(-11107.31325 0 614.9411656)
(-9956.966821 0 536.0500606)
(-8878.160937 0 449.8626413)
(-7874.35495 0 362.6885792)
(-6950.22599 0 279.7125669)
(-6109.366792 0 204.640808)
(-5353.763114 0 139.7195089)
(-4682.652008 0 85.77203414)
(-4092.615477 0 42.59326211)
(-3578.405756 0 9.296534148)
(-3133.570623 -1.227877028e-12 -15.35249256)
(-2751.106876 0 -32.73639948)
(-2424.620296 0 -44.20761022)
(-2150.349642 0 -51.05151175)
(-1929.205183 0 -54.57951115)
(-465881.3417 0 149789.3505)
(-766186.211 0 86326.97208)
(-824580.0996 0 26148.99405)
(-741812.6297 0 -13104.03598)
(-613356.3213 0 -31672.47014)
(-496853.6454 0 -38709.82694)
(-402664.8597 0 -39780.80336)
(-328938.3823 0 -37837.80607)
(-271533.2363 0 -34509.68131)
(-226615.0606 0 -30680.3145)
(-191093.4271 0 -26801.41817)
(-162647.9341 0 -23101.24353)
(-139586.8828 0 -19690.81269)
(-120670.4581 -1.109468242e-10 -16619.1625)
(-104987.9012 0 -13897.36189)
(-91867.97721 1.021184976e-10 -11510.55942)
(-80799.77701 0 -9435.326881)
(-71386.57511 0 -7646.59841)
(-63327.22496 0 -6114.170783)
(-56385.73221 0 -4808.693358)
(-50372.06394 0 -3703.855472)
(-45136.06992 0 -2773.740712)
(-40554.96343 0 -1997.002437)
(-36527.88158 0 -1353.037426)
(-32971.88425 0 -825.2319844)
(-29817.55394 0 -398.0425581)
(-27006.4462 0 -58.97994968)
(-24488.43825 0 203.3297029)
(-22220.76578 0 398.5027727)
(-20166.79909 -9.841595743e-12 534.8868035)
(-18294.10394 0 620.2811523)
(-16575.91903 0 661.5918817)
(-14989.78851 0 665.9266416)
(-13518.40038 0 640.0165557)
(-12149.56818 0 591.0309459)
(-10875.90513 0 525.843107)
(-9693.969158 0 451.2865683)
(-8603.067746 0 373.3781054)
(-7604.188725 0 297.2816633)
(-6698.106024 0 226.7612555)
(-5884.275003 0 164.2594467)
(-5160.53612 0 111.0258794)
(-4522.580856 0 67.25247118)
(-3964.461286 0 32.43607223)
(-3479.308526 0 5.646253441)
(-3059.747779 -1.227877028e-12 -14.23726653)
(-2698.358967 0 -28.40256215)
(-2388.626875 0 -37.98530545)
(-2126.633455 0 -44.05476954)
(-1913.432735 0 -47.67289657)
(-326489.8092 0 298959.0088)
(-586257.4318 0 190889.9637)
(-693335.673 0 80144.29436)
(-671585.9595 0 7393.313356)
(-585065.1642 0 -27462.41931)
(-489500.6528 0 -40834.74184)
(-405171.3984 0 -43765.42187)
(-335941.2564 0 -41932.78324)
(-280323.6688 0 -38071.38052)
(-235803.1345 0 -33534.52897)
(-199997.9568 0 -28978.71592)
(-170947.0474 0 -24703.80731)
(-147138.9747 0 -20835.13657)
(-127435.2786 -1.109468242e-10 -17409.41618)
(-110986.8018 0 -14416.35155)
(-97147.5085 0 -11825.89335)
(-85411.30844 0 -9603.000396)
(-75390.17965 0 -7709.92735)
(-66786.54859 0 -6105.014278)
(-59358.09963 0 -4752.822266)
(-52911.89265 0 -3619.834094)
(-47292.06906 0 -2676.690226)
(-42370.9367 0 -1897.537328)
(-38042.87765 0 -1259.886581)
(-34219.70082 0 -744.1952967)
(-30828.15822 0 -333.8268611)
(-27805.37074 0 -14.22994221)
(-25098.82435 0 226.7630256)
(-22662.76133 0 400.3941185)
(-20458.85015 -9.841595743e-12 515.8940219)
(-18454.04307 0 582.2795965)
(-16621.44443 0 607.4973577)
(-14939.28583 0 599.5102778)
(-13391.05995 0 565.7838932)
(-11965.27991 0 513.6716567)
(-10654.38981 0 449.9270002)
(-9453.854061 0 380.6916659)
(-8360.649539 0 311.0047744)
(-7372.572253 0 244.8595045)
(-6486.529905 0 184.8966747)
(-5698.432537 0 132.6470454)
(-5002.910873 0 88.68736264)
(-4393.110216 0 52.84532811)
(-3861.410974 0 24.48612251)
(-3399.978637 0 2.727017941)
(-3000.983206 -1.227877028e-12 -13.41632807)
(-2656.91617 0 -24.92712831)
(-2361.393689 0 -32.71402953)
(-2110.492655 0 -37.60835177)