/*--------------------------------*- C++ -*----------------------------------*\
  =========                 |
  \\      /  F ield         | OpenFOAM: The Open Source CFD Toolbox
   \\    /   O peration     | Website:  https://openfoam.org
    \\  /    A nd           | Version:  7
     \\/     M anipulation  |
\*---------------------------------------------------------------------------*/
FoamFile
{
    version     2.0;
    format      ascii;
    class       volScalarField;
    location    "0.0009";
    object      p;
}
// * * * * * * * * * * * * * * * * * * * * * * * * * * * * * * * * * * * * * //

dimensions      [1 -1 -2 0 0 0 0];

internalField   nonuniform List<scalar> 
1167
(
905471.2901
892072.8742
903130.479
902134.1457
902668.9564
904382.5612
906475.3235
908843.3727
911492.6478
914398.369
917528.3355
920855.1372
924355.666
928010.3143
931802.9549
935720.9383
939754.697
943898.0441
948147.0638
952500.7719
956960.2992
961528.3327
966209.27
971008.686
975932.6583
980987.875
986181.2002
991519.1171
997007.5937
1002651.752
1008455.344
1014420.413
1020546.807
1026831.416
1033267.473
1039843.353
1046541.167
1053335.036
1060189.562
1067059.42
1073890.819
1080625.737
1087208.133
1093590.247
1099736.012
1105616.932
1111196.517
1116417.962
1121254.186
1125816.283
1130016.209
879547.5627
890202.2141
889151.5396
889481.1297
890890.6833
892614.6615
894551.6413
896709.4383
899066.1447
901591.7196
904260.1387
907049.1362
909939.4669
912914.7306
915961.8101
919070.5488
922233.6768
925446.6279
928707.6728
932017.1744
935377.8439
938794.2502
942272.4347
945819.8436
949445.1049
953157.4829
956966.7188
960883.0855
964916.7725
969077.6277
973375.1488
977817.7489
982412.4091
987163.9398
992073.8463
997138.7527
1002347.842
1007679.775
1013099.567
1018556.627
1023986.601
1029317.562
1034478.605
1039406.764
1044049.949
1048377.287
1052435.033
1056459.124
1060763.465
1064661.613
870110.1738
880116.9159
879028.7605
879235.218
880462.2025
881985.8023
883713.1542
885659.6091
887813.567
890155.6051
892670.214
895345.5764
898172.5581
901144.4692
904257.2326
907509.4269
910901.2703
914435.1994
918115.2782
921947.1558
925937.9615
930095.8234
934430.3476
938952.0946
943672.583
948604.5084
953761.4274
959157.7823
964808.5556
970729.2351
976935.4135
983442.2462
990264.191
997414.0913
1004902.471
1012736.138
1020916.312
1029435.954
1038275.911
1047400.918
1056757.436
1066276.768
1075887.902
1085539.263
1095215.259
1104912.601
1114551.628
1123921.659
1132817.518
1140751.212
860201.3662
869588.2597
868350.5602
868150.6459
868777.1607
869555.8205
870398.5502
871319.4789
872307.083
873340.626
874401.4718
875473.1125
876540.2308
877588.6505
878605.3873
879579.0301
880499.5477
881358.9945
882151.331
882873.3584
883525.0819
884110.0405
884635.9075
885114.4758
885562.4482
886000.4901
886453.9247
886951.7548
887526.5251
888213.9792
889052.4184
890082.619
891347.686
892892.5644
894764.1655
897010.4296
899679.1723
902815.1793
906455.5079
910620.9156
915302.8413
920447.2498
925943.8243
931626.9815
937270.7905
942554.8555
947153.1456
951391.2614
957087.1116
964456.3762
854907.6411
863565.1886
862484.8059
862480.5981
863331.5716
864411.6698
865648.3752
867064.9033
868662.3977
870435.8065
872383.7406
874508.4282
876814.7008
879309.7983
882003.1059
884906.0862
888033.0453
891400.0364
895024.3857
898925.3574
903122.1774
907633.4131
912475.3985
917660.8512
923197.7239
929088.088
935328.5217
941909.8911
948818.9292
956039.7297
963555.6675
971351.4186
979414.9755
987740.0756
996328.6353
1005193.707
1014362.766
1023881.652
1033818.449
1044268.197
1055356.128
1067237.022
1080092.308
1094119.665
1109485.178
1126305.812
1145076.773
1167632.85
1196066.428
1225275.428
850074.3231
858233.261
856487.0171
855635.7946
855297.1213
854888.2714
854379.866
853808.9171
853182.1578
852500.7026
851766.4445
850981.3446
850147.0122
849265.0211
848337.3072
847366.7594
846355.8959
845305.2077
844211.5648
843066.1747
841850.4983
840535.494
839079.4968
837430.2886
835527.4445
833307.9073
830712.3728
827693.0764
824220.4677
820289.2712
815921.0994
811163.8917
806086.5622
800771.6212
795306.2856
789776.743
784265.1903
778851.7136
773618.3293
768659.2563
764099.9863
760118.122
756928.0316
754681.0126
753311.6098
752391.8619
750689.1952
745145.9652
731963.1278
714190.5419
849125.2846
856668.8033
855016.625
854372.1005
854265.5424
854147.4094
853999.754
853862.0319
853745.6486
853658.8407
853614.4649
853627.4593
853713.2359
853886.4894
854159.7329
854539.0951
855019.2077
855578.7522
856179.4076
856763.5418
857256.7956
857577.2046
857642.1052
857383.6535
856758.2525
855758.7093
854418.0587
852811.4659
851048.0597
849262.805
847602.6894
846217.3301
845248.1692
844822.9165
845047.8636
846002.4839
847732.4159
850244.7162
853505.3395
857439.9376
861931.4489
866801.558
871766.0367
876387.7056
880119.1354
882538.1284
883561.8306
882814.0757
878321.1803
870066.425
846318.0283
853297.644
851591.8457
850684.3952
850159.6052
849523.5699
848767.9954
847936.7889
847049.5756
846120.5407
845164.6073
844191.9466
843201.4805
842174.9617
841071.7638
839824.6681
838341.9872
836516.8398
834242.8948
831431.568
828037.8748
824076.3178
819630.0537
814847.1611
809920.7653
805063.9764
800479.0555
796334.8301
792750.0538
789788.4881
787463.1411
785747.9823
784594.5773
783947.7919
783758.4807
783988.1199
784608.6591
785596.1178
786921.5604
788536.1069
790349.0587
792201.2918
793849.5758
794978.7393
795234.8182
794258.0972
791754.2029
787695.0785
782539.5777
777354.2569
844298.9151
850426.4804
848606.9515
847421.2839
846493.5689
845389.8665
844124.2149
842751.5084
841301.2715
839785.6819
838195.7903
836493.4999
834607.2605
832435.8673
829860.5366
826768.3199
823082.3479
818791.6265
813967.6477
808768.6138
803421.9991
798184.9661
793309.0354
788999.4386
785398.0865
782574.9561
780539.3733
779252.9033
778650.981
778655.3508
779188.002
780176.6595
781560.2467
783290.0628
785329.6768
787650.9497
790226.7266
793020.0687
795970.6442
798980.7329
801905.6852
804556.4098
806719.9518
808196.6558
808846.0119
808614.1059
807474.3809
805235.894
801582.8134
797438.1699
841622.4092
846884.4158
844925.0564
843383.2231
841947.0005
840248.1398
838309.181
836157.9992
833769.3882
831071.054
827952.0686
824281.0984
819939.198
814861.5516
809075.0542
802718.8559
796038.5927
789343.3262
782949.4216
777129.0791
772067.2396
767852.6709
764489.7294
761922.514
760065.1932
758823.4593
758109.322
757845.9225
757968.7928
758424.5135
759168.1031
760162.9382
761378.5915
762791.6257
764382.4147
766132.4751
768016.438
769993.2134
771995.1566
773922.2848
775644.2245
777015.0609
777895.7343
778177.0427
777796.2219
776748.8383
775097.8146
772960.1881
770484.7989
768074.4167
837962.3434
842241.8254
840081.0078
838057.1216
835898.2281
833253.7858
830065.4811
826253.4999
821691.2747
816271.3905
809958.4212
802836.413
795128.3363
787172.253
779358.3677
772055.179
765542.2345
759977.3611
755404.3323
751780.7035
749011.3184
746985.9004
745594.1403
744740.1316
744342.1334
744335.6766
744668.4902
745300.5002
746198.1964
747334.6834
748685.4954
750228.7483
751943.6359
753809.5382
755804.1019
757899.0558
760054.8636
762214.065
764298.0326
766208.8315
767839.1309
769087.6736
769875.3571
770157.2339
769927.4683
769216.0376
768066.454
766485.736
764470.2838
762452.5749
833009.6251
835977.8103
833253.8926
830070.0997
826108.9309
821013.2108
814708.0241
807244.2517
798801.1422
789717.2756
780448.9732
771474.7716
763203.1007
755908.54
749714.7123
744616.4003
740522.5692
737306.1911
734839.2251
733002.7916
731696.7606
730839.8196
730365.1843
730220.7936
730363.5552
730760.3971
731383.9971
732212.4997
733227.2254
734411.3
735748.7511
737222.5262
738814.9824
740504.9607
742267.0851
744067.6007
745861.5117
747589.7269
749180.6796
750555.8254
751640.1111
752372.7498
752716.0972
752659.7785
752220.9299
751442.7144
750386.9825
749109.5029
747652.8852
746247.7394
823747.9432
823938.2682
819041.3427
812564.2619
804499.1784
795097.1222
784905.7883
774570.5819
764678.2377
755667.4105
747791.7387
741124.0604
735605.5752
731109.7042
727492.2715
724616.4099
722364.255
720640.6059
719368.6195
718484.7564
717940.466
717694.4743
717714.3417
717972.578
718446.8207
719117.8419
719970.0442
720988.757
722161.2945
723473.7273
724911.9481
726458.9918
728095.041
729795.5586
731529.6615
733258.5783
734934.1861
736500.2282
737895.7851
739061.8985
739949.204
740524.3187
740773.643
740703.4505
740337.9728
739716.0254
738880.9733
737855.9128
736650.3045
735480.6879
797588.9862
793761.7351
786044.0475
776538.3942
766392.1836
756544.5909
747580.5945
739755.1073
733095.72
727503.7599
722836.36
718957.6425
715751.333
713121.096
710986.5364
709282.687
707956.156
706966.1338
706275.4981
705853.9488
705677.1326
705722.0648
705971.3924
706407.7214
707017.5923
707787.1727
708705.2715
709759.892
710939.4055
712230.7247
713618.7167
715085.5284
716608.8859
718162.0631
719711.8232
721219.1444
722639.0483
723923.8328
725026.7097
725907.5164
726537.2196
726901.147
726999.9491
726848.1986
726472.3242
725908.4059
725196.0107
724360.6511
723413.5155
722501.9606
752655.5544
747943.6489
742227.3806
735717.2566
729502.1317
723928.7658
719025.5036
714722.9163
710968.5638
707710.0661
704897.9161
702489.5459
700449.6077
698747.4429
697355.2586
696247.7996
695404.2744
694805.1694
694431.4199
694268.5344
694301.5728
694517.4322
694904.5715
695451.4622
696147.864
696983.3159
697947.4501
699029.6178
700217.4688
701497.6055
702853.0946
704264.4183
705707.3478
707153.4363
708569.3245
709917.8593
711159.6791
712256.314
713173.5873
713885.5037
714376.5657
714642.9924
714692.1519
714540.8022
714213.1617
713739.0451
713148.2674
712455.4918
711663.1076
710899.4314
716572.355
713280.5775
710913.7339
707993.8675
704984.648
702068.8944
699315.6084
696749.1462
694391.5217
692261.8621
690367.0641
688707.534
687280.8509
686081.631
685101.6616
684333.3678
683769.0419
683398.133
683211.1436
683200.4793
683355.6282
683669.0344
684130.959
684733.2202
685466.2247
686321.2466
687287.3736
688354.0831
689507.9955
690734.4612
692015.4705
693329.8921
694652.9692
695956.165
697208.2957
698376.3058
699427.9606
700334.0254
701071.2018
701624.1469
701986.522
702161.1208
702158.6503
701996.1043
701695.2253
701281.2823
700778.9853
700200.6058
699547.3586
698918.8159
691743.9507
689894.5871
689289.7402
688185.1744
686734.9709
685124.2692
683456.8917
681808.2079
680222.5616
678739.5566
677387.1389
676182.4659
675136.6343
674255.2459
673541.2384
672996.2071
672617.1511
672399.4759
672340.3052
672433.7954
672673.1038
673052.871
673564.7867
674202.1781
674955.8304
675817.2201
676775.3993
677818.8463
678933.7959
680104.0371
681311.0161
682532.6919
683744.7287
684919.9344
686030.3428
687047.9383
687947.3118
688707.154
689312.4337
689755.0875
690034.3517
690156.3178
690132.6165
689979.0045
689714.1822
689358.9218
688932.6808
688443.5768
687890.369
687357.9986
670776.2651
670498.4496
671070.2475
671184.3575
670809.5059
670108.1249
669195.5155
668179.9289
667134.1433
666108.243
665141.4853
664263.1175
663493.0597
662845.5719
662330.63
661952.8921
661713.5446
661612.6266
661650.2466
661821.5464
662123.095
662549.3753
663094.1598
663750.2612
664509.5664
665362.6107
666298.7417
667305.1176
668367.7822
669469.4767
670591.425
671711.8656
672807.6346
673854.1627
674827.2847
675704.332
676466.0541
677097.6929
677590.32
677940.8656
678152.0106
678231.455
678190.7444
678044.111
677807.6271
677498.6038
677132.9711
676717.0434
676249.0411
675798.9515
652863.6239
653516.7022
654619.0396
655508.2293
655952.8819
655979.317
655681.6282
655178.767
654566.3508
653909.7751
653257.4167
652646.5657
652104.9709
651652.9597
651304.2838
651066.7045
650944.7291
650943.2268
651062.0712
651298.3573
651650.9295
652114.0392
652683.2471
653350.4895
654108.6331
654947.3135
655855.9543
656820.9489
657827.9224
658859.6566
659897.3972
660920.702
661908.0799
662838.2064
663690.7972
664448.1882
665096.2383
665625.2864
666030.6854
666312.5486
666475.4658
666527.6166
666479.8243
666344.6292
666135.7098
665867.4363
665552.7286
665196.0877
664795.1201
664409.6129
637047.2207
638209.5225
639402.316
640677.6023
641701.8563
642316.9204
642556.304
642509.079
642279.7575
641948.0573
641573.3404
641199.946
640862.0053
640583.5269
640382.1304
640268.7138
640252.1233
640338.5425
640528.2878
640821.814
641217.3241
641710.4046
642296.8596
642968.9078
643719.2574
644537.6165
645412.8317
646331.5555
647278.8582
648238.2816
649191.5599
650120.1213
651004.6909
651827.2746
652571.4089
653223.7441
653774.2997
654217.2992
654551.0548
654777.683
654902.7293
654934.3014
654882.305
654757.719
654572.1971
654337.7764
654065.1406
653757.7302
653413.0431
653081.793
622695.8704
624146.7863
625213.5287
626589.8147
627942.9986
628991.653
629681.9399
630046.5161
630170.8896
630139.7657
630020.3105
629864.8489
629712.7849
629592.9042
629526.0506
629526.3188
629606.7315
629772.6403
630026.1336
630370.5347
630802.9251
631320.9708
631919.5046
632592.0711
633330.3707
634124.8557
634963.6863
635834.1999
636721.3311
637609.6268
638482.016
639321.8821
640112.5713
640839.2294
641488.8991
642051.773
642521.1633
642894.0885
643170.8558
643354.7549
643451.6654
643469.2897
643416.5334
643302.9474
643138.4566
642933.1742
642695.9542
642429.3357
642130.7363
641843.858
609365.9504
611002.2756
611876.9667
613198.4415
614670.3627
615988.2311
617019.8416
617741.8403
618189.8359
618438.9919
618559.0291
618607.6215
618629.3525
618656.9869
618714.4655
618821.389
618990.5471
619228.5448
619540.8962
619930.1743
620394.2935
620932.3826
621538.513
622207.4056
622929.9813
623697.3523
624497.5504
625318.3693
626145.4377
626964.3116
627759.7072
628516.9165
629222.0816
629863.0868
630430.1162
630916.1851
631317.1406
631631.9674
631862.2772
632012.0273
632087.0709
632094.5503
632042.3949
631938.9231
631792.6152
631612.0199
631404.5509
631172.1272
630912.217
630662.5565
596751.1743
598519.7241
599219.0449
600417.4897
601872.4542
603317.7024
604576.9191
605579.2332
606314.4899
606822.9899
607168.1446
607409.339
607594.3391
607759.6538
607934.8411
608141.3303
608392.2284
608696.1732
609061.9616
609490.7604
609982.7241
610536.3745
611146.6046
611808.1268
612512.3238
613250.2673
614010.7577
614781.8155
615550.4491
616303.1473
617026.7217
617708.3335
618336.791
618902.3823
619397.9598
619818.7267
620162.4783
620429.5336
620622.3003
620745.0576
620803.4198
620803.9068
620753.5356
620659.5493
620529.2133
620369.7864
620187.5041
619983.7824
619756.154
619537.5048
608387.6798
608752.7615
609048.43
609275.8811
609437.9841
609539.0769
609584.4427
609579.9865
609531.9092
609446.5114
609330.0421
609188.7012
609027.77
608848.2868
608647.8788
608455.3468
)
;

boundaryField
{
    front_top
    {
        type            wedge;
    }
    front_middle
    {
        type            wedge;
    }
    front_bottom
    {
        type            wedge;
    }
    back_top
    {
        type            wedge;
    }
    back_middle
    {
        type            wedge;
    }
    back_bottom
    {
        type            wedge;
    }
    axis_top
    {
        type            symmetryPlane;
    }
    axis_middle
    {
        type            symmetryPlane;
    }
    axis_bottom
    {
        type            symmetryPlane;
    }
    wall_top
    {
        type            fixedFluxPressure;
        gradient        nonuniform 0();
        value           nonuniform 0();
    }
    wall_middle
    {
        type            fixedFluxPressure;
        gradient        uniform 0;
        value           nonuniform List<scalar> 5(1130016.209 1064661.613 1140751.212 964456.3762 1225275.428);
    }
    wall_bottom
    {
        type            fixedFluxPressure;
        gradient        uniform 0;
        value           nonuniform List<scalar> 
19
(
714190.5419
870066.425
777354.2569
797438.1699
768074.4167
762452.5749
746247.7394
735480.6879
722501.9606
710899.4314
698918.8159
687357.9986
675798.9515
664409.6129
653081.793
641843.858
630662.5565
619537.5048
608455.3468
)
;
    }
    inlet
    {
        type            zeroGradient;
    }
    outlet
    {
        type            fixedValue;
        value           nonuniform 0();
    }
    procBoundary2to1
    {
        type            processor;
        value           nonuniform List<scalar> 
51
(
584653.7198
586529.371
587085.5356
588145.8115
589519.1575
590986.3739
592369.3262
593567.7
594536.0287
595276.7001
595831.4717
596253.8873
596593.2707
596890.4202
597177.4673
597476.1371
597802.1255
598168.078
598581.844
599045.2675
599560.9352
600126.0688
600737.2084
601388.3316
602072.1093
602779.1618
603499.5831
604221.7062
604934.1145
605624.4822
606281.5877
606894.5863
607454.529
607953.9129
607953.9129
597398.2029
597715.9789
597971.2938
598165.9315
598302.9952
598386.7203
598422.0128
598414.191
598368.7291
598291.1162
598186.7449
598060.9348
597918.1802
597759.2155
597581.7642
597411.2295
)
;
    }
    procBoundary2to3
    {
        type            processor;
        value           nonuniform List<scalar> 
51
(
920382.7639
916912.7218
916912.7218
915960.9042
916632.5411
918537.7975
920851.8552
923467.6148
926386.6053
929578.2112
933004.5714
936632.6794
940433.832
944382.8508
948458.2683
952641.9936
956919.2217
961278.2583
965710.007
970207.7807
974767.203
979385.3781
984060.6126
988792.4216
993580.8688
998426.2338
1003328.881
1008289.079
1013306.471
1018379.989
1023507.762
1028686.493
1033911.456
1039175.887
1044470.509
1049782.637
1055095.237
1060385.695
1065625.167
1070778.731
1075807.102
1080670.116
1085331.104
1089761.073
1093941.267
1097862.966
1101526.891
1104957.849
1108251.136
1111536.427
1114454.062
)
;
    }
}


// ************************************************************************* //
