/*--------------------------------*- C++ -*----------------------------------*\
  =========                 |
  \\      /  F ield         | OpenFOAM: The Open Source CFD Toolbox
   \\    /   O peration     | Website:  https://openfoam.org
    \\  /    A nd           | Version:  7
     \\/     M anipulation  |
\*---------------------------------------------------------------------------*/
FoamFile
{
    version     2.0;
    format      ascii;
    class       surfaceScalarField;
    location    "0.0009";
    object      phi;
}
// * * * * * * * * * * * * * * * * * * * * * * * * * * * * * * * * * * * * * //

dimensions      [1 0 -1 0 0 0 0];

internalField   nonuniform List<scalar> 
2259
(
7.469991829e-11
2.687371356e-12
7.201254694e-11
1.051734271e-11
2.105830246e-10
2.310106546e-11
3.409698083e-10
4.000600964e-11
4.632511882e-10
6.076690568e-11
5.775379094e-10
8.489424897e-11
6.839665357e-10
1.118809965e-10
7.826917336e-10
1.412083894e-10
8.738824148e-10
1.723512273e-10
9.577176614e-10
2.047823938e-10
1.03438298e-09
2.379769826e-10
1.104067405e-09
2.714161008e-10
1.166960954e-09
3.045905239e-10
1.223252886e-09
3.370041801e-10
1.273129812e-09
3.681778886e-10
1.316774736e-09
3.976527849e-10
1.354366538e-09
4.249947524e-10
1.386079008e-09
4.497978439e-10
1.412081623e-09
4.716894352e-10
1.43253904e-09
4.903343512e-10
1.447611664e-09
5.054397415e-10
1.457456676e-09
5.167602263e-10
1.462228519e-09
5.241027542e-10
1.462079504e-09
5.273309171e-10
1.457161559e-09
5.263698421e-10
1.44762613e-09
5.212095915e-10
1.433625677e-09
5.119078024e-10
1.415314037e-09
4.985915451e-10
1.392846449e-09
4.814575328e-10
1.366379954e-09
4.607703645e-10
1.336072243e-09
4.368592902e-10
1.30208056e-09
4.101130518e-10
1.264559047e-09
3.809719631e-10
1.223655666e-09
3.499190145e-10
1.179506872e-09
3.17468777e-10
1.13223154e-09
2.841563085e-10
1.081922687e-09
2.505259407e-10
1.028638715e-09
2.171221512e-10
9.723942402e-10
1.844845063e-10
9.131531321e-10
1.531461217e-10
8.508279755e-10
1.236355225e-10
7.852884939e-10
9.647757205e-11
7.163827329e-10
7.218795025e-11
6.439704258e-10
5.12528293e-11
5.679647578e-10
3.408410401e-11
4.883772598e-10
2.093637307e-11
4.053616927e-10
1.176548388e-11
3.192610428e-10
6.004840845e-12
2.306697676e-10
2.252715036e-12
1.405009456e-10
4.862537958e-11
3.257342228e-12
6.875520474e-11
1.276084653e-11
2.010795204e-10
2.806442538e-11
3.256662296e-10
4.868306574e-11
4.426325479e-10
7.410308743e-11
5.521178877e-10
1.037899273e-10
6.542796958e-10
1.371937414e-10
7.492879195e-10
1.737545523e-10
8.37321604e-10
2.129065642e-10
9.185656495e-10
2.540817601e-10
9.932077841e-10
2.967130109e-10
1.061436155e-09
3.402367464e-10
1.123437218e-09
3.840954529e-10
1.179394179e-09
4.27739639e-10
1.229485626e-09
4.706302485e-10
1.273884127e-09
5.122406368e-10
1.31275615e-09
5.520589042e-10
1.34626074e-09
5.895903816e-10
1.374550145e-09
6.243604771e-10
1.397768945e-09
6.559176978e-10
1.416054444e-09
6.838375242e-10
1.42953685e-09
7.077264193e-10
1.438339624e-09
7.272264626e-10
1.442579461e-09
7.420206661e-10
1.442367356e-09
7.518383881e-10
1.437808409e-09
7.564616613e-10
1.429002404e-09
7.557310487e-10
1.416044649e-09
7.495518571e-10
1.399025641e-09
7.379004778e-10
1.378031334e-09
7.208290719e-10
1.353143648e-09
6.984707467e-10
1.324438885e-09
6.710420615e-10
1.291987733e-09
6.388449623e-10
1.255852765e-09
6.022660276e-10
1.216085807e-09
5.617738802e-10
1.172723687e-09
5.17914439e-10
1.125782128e-09
4.713047609e-10
1.075248393e-09
4.226264112e-10
1.02107259e-09
3.726205315e-10
9.631590119e-10
3.220866569e-10
9.013618502e-10
2.718852603e-10
8.354898903e-10
2.229415112e-10
7.65326482e-10
1.762415676e-10
6.906703693e-10
1.328120515e-10
6.113942738e-10
9.368054957e-11
5.275087616e-10
5.984101427e-11
4.392012278e-10
3.229048603e-11
3.468115707e-10
1.2235199e-11
2.507250542e-10
1.549562509e-12
1.511865818e-10
5.017494209e-11
3.791496414e-12
6.496370833e-11
1.48556617e-11
1.900153551e-10
3.269722085e-11
3.078246704e-10
5.679014847e-11
4.185396202e-10
8.658516921e-11
5.22322867e-10
1.215167421e-10
6.19348123e-10
1.610077327e-10
7.097969288e-10
2.044737959e-10
7.938555407e-10
2.513269224e-10
8.71712523e-10
3.009782181e-10
9.435564887e-10
3.528401822e-10
1.009574191e-09
4.063285339e-10
1.069948866e-09
4.608637805e-10
1.124858933e-09
5.15872284e-10
1.174477122e-09
5.707871625e-10
1.218969248e-09
6.25049486e-10
1.258493827e-09
6.781085202e-10
1.293201706e-09
7.294228222e-10
1.323235843e-09
7.784607626e-10
1.348731004e-09
8.247012147e-10
1.369813992e-09
8.676350017e-10
1.386603062e-09
9.06765756e-10
1.39920887e-09
9.416117877e-10
1.40773343e-09
9.717086401e-10
1.412270503e-09
9.966116921e-10
1.412905357e-09
1.015900244e-09
1.409713852e-09
1.029182314e-09
1.402762579e-09
1.036100345e-09
1.392107609e-09
1.036338078e-09
1.3777936e-09
1.029628513e-09
1.359853213e-09
1.015762449e-09
1.338304949e-09
9.945979293e-10
1.313152253e-09
9.660705178e-10
1.284380176e-09
9.302035578e-10
1.251952767e-09
8.871187052e-10
1.215808539e-09
8.370470705e-10
1.175853763e-09
7.803409431e-10
1.13195452e-09
7.174881685e-10
1.083925364e-09
6.491319973e-10
1.031515183e-09
5.761020591e-10
9.74391788e-10
4.994646973e-10
9.121272516e-10
4.205979578e-10
8.441932211e-10
3.412907925e-10
7.699775341e-10
2.638466912e-10
6.888383745e-10
1.91145655e-10
6.002097972e-10
1.265834794e-10
5.037634028e-10
7.371927009e-11
3.996757791e-10
3.523704381e-11
2.89207279e-10
1.073816102e-11
1.756854636e-10
6.09131031e-11
4.251086804e-12
6.071262155e-11
1.667055796e-11
1.775958839e-10
3.672750005e-11
2.877677282e-10
6.386953872e-11
3.913975815e-10
9.752989739e-11
4.886625083e-10
1.371325721e-10
5.797454483e-10
1.820965625e-10
6.648329384e-10
2.318391801e-10
7.441129229e-10
2.857790118e-10
8.177726912e-10
3.433380721e-10
8.859974283e-10
4.03943531e-10
9.489687317e-10
4.670289657e-10
1.006863432e-09
5.320352452e-10
1.059852653e-09
5.984111128e-10
1.108101255e-09
6.656130965e-10
1.151767265e-09
7.331054473e-10
1.191001476e-09
8.003596045e-10
1.225947549e-09
8.66853552e-10
1.256741896e-09
9.320705524e-10
1.283514004e-09
9.954979188e-10
1.306386626e-09
1.056625598e-09
1.325475383e-09
1.114944622e-09
1.340889846e-09
1.169945429e-09
1.352732622e-09
1.221116157e-09
1.361099774e-09
1.267941623e-09
1.366079891e-09
1.309901568e-09
1.367753907e-09
1.346470486e-09
1.366193661e-09
1.377116953e-09
1.361461142e-09
1.401303876e-09
1.353606677e-09
1.418489481e-09
1.342667608e-09
1.428128916e-09
1.328665514e-09
1.429676725e-09
1.311604443e-09
1.422589987e-09
1.291466914e-09
1.406332549e-09
1.268210206e-09
1.380381133e-09
1.241759954e-09
1.344232179e-09
1.212002717e-09
1.297412635e-09
1.178774064e-09
1.239494006e-09
1.141843994e-09
1.170114375e-09
1.100894813e-09
1.089013005e-09
1.055493157e-09
9.960895504e-10
1.005050707e-09
8.915052569e-10
9.487775143e-10
7.758528565e-10
8.856299342e-10
6.504253483e-10
8.142658821e-10
5.17613544e-10
7.330216012e-10
3.814518634e-10
6.39925083e-10
2.483239079e-10
5.328037342e-10
1.281125161e-10
4.094186701e-10
3.76570752e-11
2.661409042e-10
9.85701783e-11
4.585166282e-12
5.612745527e-11
1.798246681e-11
1.641985834e-10
3.963802127e-11
2.661121738e-10
6.898623404e-11
3.620493687e-10
1.054541433e-10
4.52194599e-10
1.484654437e-10
5.367341478e-10
1.974439148e-10
6.158544672e-10
2.518156965e-10
6.897411414e-10
3.110113098e-10
7.585770779e-10
3.74467155e-10
8.225415832e-10
4.416264816e-10
8.818094052e-10
5.119399997e-10
9.365499133e-10
5.848661414e-10
9.869265113e-10
6.598711157e-10
1.03309628e-09
7.364287367e-10
1.075209644e-09
8.140199917e-10
1.113410221e-09
8.921330033e-10
1.147834537e-09
9.702629859e-10
1.178611913e-09
1.047912213e-09
1.205864777e-09
1.124590756e-09
1.229708083e-09
1.199817031e-09
1.250249107e-09
1.273118797e-09
1.267588081e-09
1.344034063e-09
1.281817356e-09
1.412111179e-09
1.293022659e-09
1.476908517e-09
1.301282552e-09
1.537992642e-09
1.306669782e-09
1.594935092e-09
1.309251212e-09
1.647307323e-09
1.30908891e-09
1.694674096e-09
1.306239904e-09
1.736584547e-09
1.300757158e-09
1.772561928e-09
1.292688132e-09
1.802090834e-09
1.282075537e-09
1.824602587e-09
1.268955161e-09
1.839457795e-09
1.253354998e-09
1.84592637e-09
1.235291379e-09
1.843164334e-09
1.214764754e-09
1.83018598e-09
1.191752418e-09
1.805831183e-09
1.16619879e-09
1.768723748e-09
1.138002248e-09
1.717218328e-09
1.106998576e-09
1.649331458e-09
1.072937577e-09
1.562659825e-09
1.035449147e-09
1.454305554e-09
9.939842044e-10
1.320874434e-09
9.47697001e-10
1.158680108e-09
8.952159272e-10
9.643748757e-10
8.342303147e-10
7.36356125e-10
7.608224836e-10
4.778688869e-10
6.679059061e-10
2.052825787e-10
5.387272109e-10
3.038527569e-10
-4.60724493e-13
5.658817976e-11
-1.811948953e-12
1.655498079e-10
-4.018049071e-12
2.68318274e-10
-7.054295525e-12
3.650856152e-10
-1.090345391e-11
4.560437574e-10
-1.555466538e-11
5.413853593e-10
-2.100239644e-11
6.213021982e-10
-2.724506497e-11
6.9598381e-10
-3.42839768e-11
7.656159898e-10
-4.212210902e-11
8.303797154e-10
-5.076312229e-11
8.904504185e-10
-6.021040001e-11
9.459971911e-10
-7.046615547e-11
9.971822668e-10
-8.153053593e-11
1.044160661e-09
-9.340069422e-11
1.087079802e-09
-1.06069616e-10
1.126079143e-09
-1.195249355e-10
1.161289857e-09
-1.337476705e-10
1.192834648e-09
-1.487107855e-10
1.220827892e-09
-1.643776137e-10
1.245374911e-09
-1.807011443e-10
1.266572638e-09
-1.976232161e-10
1.284510153e-09
-2.150750426e-10
1.299269182e-09
-2.329780359e-10
1.310925652e-09
-2.512456502e-10
1.319550167e-09
-2.697852629e-10
1.325209395e-09
-2.885000273e-10
1.327965976e-09
-3.072897695e-10
1.327878653e-09
-3.260509752e-10
1.32500111e-09
-3.446752386e-10
1.319381421e-09
-3.630469188e-10
1.311059812e-09
-3.810399377e-10
1.300068556e-09
-3.985148961e-10
1.286430119e-09
-4.153159923e-10
1.270156094e-09
-4.312680568e-10
1.251243444e-09
-4.461715677e-10
1.229668265e-09
-4.597945098e-10
1.20537536e-09
-4.718580097e-10
1.17826229e-09
-4.820138963e-10
1.148158135e-09
-4.898093618e-10
1.114794041e-09
-4.946301308e-10
1.077758346e-09
-4.956026753e-10
1.036421692e-09
-4.914188155e-10
9.898003445e-10
-4.800377729e-10
9.363159581e-10
-4.582358591e-10
8.734140131e-10
-4.210268318e-10
7.970212871e-10
-3.610556958e-10
7.008513474e-10
-2.686289856e-10
5.754791952e-10
-1.355433251e-10
4.056415498e-10
1.683094318e-10
-3.574655054e-13
5.694564526e-11
-1.4084871e-12
1.666008295e-10
-3.128231642e-12
2.700380185e-10
-5.500638894e-12
3.674580224e-10
-8.516841835e-12
4.590599603e-10
-1.217356112e-11
5.450420786e-10
-1.647187051e-11
6.256005076e-10
-2.141556758e-11
7.00927507e-10
-2.700996938e-11
7.712103916e-10
-3.32606376e-11
8.366303836e-10
-4.017202089e-11
8.973618018e-10
-4.774612127e-11
9.535712914e-10
-5.598108438e-11
1.00541723e-09
-6.486966391e-11
1.05304924e-09
-7.439742436e-11
1.096607563e-09
-8.454101541e-11
1.136222734e-09
-9.526673915e-11
1.17201558e-09
-1.06529793e-10
1.204097702e-09
-1.182740106e-10
1.23257211e-09
-1.30433257e-10
1.257534157e-09
-1.429343483e-10
1.279073729e-09
-1.557003198e-10
1.297276124e-09
-1.686554288e-10
1.312224291e-09
-1.817288111e-10
1.323999035e-09
-1.948583769e-10
1.332679733e-09
-2.079922346e-10
1.338343253e-09
-2.210891158e-10
1.341062858e-09
-2.341159606e-10
1.340905498e-09
-2.470446828e-10
1.337929832e-09
-2.598463927e-10
1.332183131e-09
-2.724854278e-10
1.323698847e-09
-2.849116008e-10
1.312494729e-09
-2.970531815e-10
1.2985717e-09
-3.088089185e-10
1.28191183e-09
-3.200407939e-10
1.262475319e-09
-3.305645804e-10
1.240192051e-09
-3.401372404e-10
1.21494802e-09
-3.484367082e-10
1.186561758e-09
-3.550297942e-10
1.154751221e-09
-3.59320239e-10
1.119084486e-09
-3.604678963e-10
1.078906003e-09
-3.572715442e-10
1.033225339e-09
-3.480235618e-10
9.805523618e-10
-3.303849777e-10
9.186773737e-10
-3.014026908e-10
8.444317258e-10
-2.579006704e-10
7.535192662e-10
-1.97647681e-10
6.405983572e-10
-1.222227519e-10
5.000542652e-10
-4.494066261e-11
3.283594598e-10
1.233687691e-10
-2.66856053e-13
5.721250132e-11
-1.05106594e-12
1.673850394e-10
-2.336785476e-12
2.71323738e-10
-4.115421354e-12
3.692366583e-10
-6.384389944e-12
4.613289289e-10
-9.145397811e-12
5.478030864e-10
-1.240299893e-11
6.288581087e-10
-1.616281647e-11
7.046873246e-10
-2.042992063e-11
7.754774957e-10
-2.52072388e-11
8.414077018e-10
-3.049376361e-11
9.026483267e-10
-3.628276231e-11
9.593602902e-10
-4.256008223e-11
1.01169455e-09
-4.930275206e-11
1.05979191e-09
-5.647818976e-11
1.103783e-09
-6.4044617e-11
1.143789161e-09
-7.195277402e-11
1.179923737e-09
-8.014892198e-11
1.21229385e-09
-8.857860361e-11
1.241001791e-09
-9.719136816e-11
1.266146922e-09
-1.059440184e-10
1.287826379e-09
-1.148030926e-10
1.306135199e-09
-1.237454056e-10
1.321166604e-09
-1.327565733e-10
1.333010202e-09
-1.418286845e-10
1.341751844e-09
-1.509563838e-10
1.347470952e-09
-1.601332203e-10
1.350239694e-09
-1.693473493e-10
1.350119627e-09
-1.785778198e-10
1.347160302e-09
-1.87790859e-10
1.34139617e-09
-1.969361183e-10
1.332844106e-09
-2.059423842e-10
1.321500995e-09
-2.147117247e-10
1.307341041e-09
-2.231120925e-10
1.290312198e-09
-2.309670427e-10
1.270330269e-09
-2.380432931e-10
1.247268302e-09
-2.440339026e-10
1.220938629e-09
-2.485369353e-10
1.191064791e-09
-2.510260859e-10
1.157240371e-09
-2.50813401e-10
1.118871801e-09
-2.470085944e-10
1.075101197e-09
-2.38497681e-10
1.024714426e-09
-2.239913853e-10
9.660460659e-10
-2.022274576e-10
8.969134458e-10
-1.724267061e-10
8.14630974e-10
-1.35060884e-10
7.161534438e-10
-9.283401367e-11
5.983714864e-10
-5.128620406e-11
4.585064547e-10
-1.731815127e-11
2.943914064e-10
1.060506179e-10
-1.897843177e-13
5.740228564e-11
-7.485788682e-13
1.679438339e-10
-1.66755909e-12
2.722427183e-10
-2.944031045e-12
3.705131302e-10
-4.580014018e-12
4.629649119e-10
-6.580455136e-12
5.498035276e-10
-8.951223375e-12
6.31228877e-10
-1.169724434e-11
7.074333455e-10
-1.482042156e-11
7.78600673e-10
-1.831778318e-11
8.449050634e-10
-2.217994306e-11
9.065104866e-10
-2.639014912e-11
9.635704962e-10
-3.09243431e-11
1.016228744e-09
-3.575245707e-11
1.064620024e-09
-4.08411521e-11
1.108871695e-09
-4.615750773e-11
1.149105517e-09
-5.167297356e-11
1.185439203e-09
-5.736659962e-11
1.217987476e-09
-6.3227385e-11
1.246862577e-09
-6.925466613e-11
1.272174203e-09
-7.545645624e-11
1.294028169e-09
-8.18472759e-11
1.312526018e-09
-8.84437941e-11
1.327763123e-09
-9.526154058e-11
1.339827949e-09
-1.023106891e-10
1.348800993e-09
-1.095935963e-10
1.354753859e-09
-1.171018838e-10
1.357747982e-09
-1.248152438e-10
1.357832987e-09
-1.326988131e-10
1.355043871e-09
-1.407018486e-10
1.349399206e-09
-1.487545554e-10
1.340896813e-09
-1.567650629e-10
1.329511503e-09
-1.646140662e-10
1.315190044e-09
-1.721479138e-10
1.297846046e-09
-1.791686262e-10
1.277350982e-09
-1.854210691e-10
1.253520745e-09
-1.905769965e-10
1.226094557e-09
-1.942164649e-10
1.194704259e-09
-1.958089671e-10
1.158832873e-09
-1.947006007e-10
1.117763435e-09
-1.901214304e-10
1.070522026e-09
-1.812366814e-10
1.015829677e-09
-1.672699e-10
9.520792845e-10
-1.477203366e-10
8.773638824e-10
-1.226672895e-10
7.89577927e-10
-9.311995142e-11
6.866061057e-10
-6.135556596e-11
5.666071011e-10
-3.123736299e-11
4.283882519e-10
-8.678213771e-12
2.718322573e-10
9.73724041e-11
-1.272779007e-13
5.752956354e-11
-5.026900832e-13
1.683192461e-10
-1.122771268e-12
2.728627995e-10
-1.988837157e-12
3.713791961e-10
-3.105224849e-12
4.640812996e-10
-4.477290064e-12
5.511755928e-10
-6.108938651e-12
6.328605256e-10
-8.000926336e-12
7.093253332e-10
-1.014927691e-11
7.807490235e-10
-1.254471373e-11
8.473005002e-10
-1.517323059e-11
9.091390034e-10
-1.801791249e-11
9.664151782e-10
-2.106174672e-11
1.019272578e-09
-2.429082161e-11
1.067849099e-09
-2.769723632e-11
1.11227811e-09
-3.128107104e-11
1.152689352e-09
-3.505062677e-11
1.189208759e-09
-3.902157901e-11
1.221958428e-09
-4.321500407e-11
1.251056002e-09
-4.765418151e-11
1.27661338e-09
-5.236208029e-11
1.298736068e-09
-5.735871022e-11
1.317522648e-09
-6.265888435e-11
1.333063297e-09
-6.827058516e-11
1.34543965e-09
-7.419293589e-11
1.354723343e-09
-8.041461467e-11
1.360975538e-09
-8.691198446e-11
1.364245351e-09
-9.36476861e-11
1.364568689e-09
-1.005690997e-10
1.361965285e-09
-1.076065095e-10
1.356436616e-09
-1.146712213e-10
1.347961525e-09
-1.216519375e-10
1.336492219e-09
-1.284107514e-10
1.321948858e-09
-1.34776062e-10
1.304211356e-09
-1.405347327e-10
1.283109653e-09
-1.454210602e-10
1.258407072e-09
-1.491062749e-10
1.229779771e-09
-1.511889244e-10
1.196786909e-09
-1.511936927e-10
1.158837641e-09
-1.485856034e-10
1.115155346e-09
-1.428144668e-10
1.06475089e-09
-1.333998649e-10
1.006415075e-09
-1.200651516e-10
9.387445711e-10
-1.029106876e-10
8.602094181e-10
-8.259674281e-11
7.69263982e-10
-6.048170205e-11
6.644910647e-10
-3.863398604e-11
5.447593847e-10
-1.961180949e-11
4.093660748e-10
-5.884115079e-12
2.581045626e-10
9.148828903e-11
-7.865293436e-14
5.760821647e-11
-3.11206047e-13
1.685517992e-10
-6.976050551e-13
2.732491985e-10
-1.240825323e-12
3.719224164e-10
-1.944924808e-12
4.647853991e-10
-2.813036127e-12
5.520437041e-10
-3.845711717e-12
6.338932012e-10
-5.04047924e-12
7.105201008e-10
-6.392578613e-12
7.821011229e-10
-7.89649228e-12
8.488044139e-10
-9.548277408e-12
9.107907886e-10
-1.134791617e-11
9.682148169e-10
-1.330109564e-11
1.021225758e-09
-1.541995788e-11
1.069967961e-09
-1.772280838e-11
1.114580961e-09
-2.023260455e-11
1.155199148e-09
-2.297503765e-11
1.191951192e-09
-2.597663525e-11
1.224960026e-09
-2.926274355e-11
1.25434211e-09
-3.285572246e-11
1.280206359e-09
-3.677394905e-11
1.302654295e-09
-4.102991799e-11
1.321778617e-09
-4.562965757e-11
1.337663036e-09
-5.057115833e-11
1.35038115e-09
-5.584390709e-11
1.359996092e-09
-6.142718448e-11
1.366558815e-09
-6.728941241e-11
1.370107579e-09
-7.338609942e-11
1.370665376e-09
-7.965892863e-11
1.368238114e-09
-8.603311687e-11
1.362810804e-09
-9.241551315e-11
1.354343921e-09
-9.869094151e-11
1.342767647e-09
-1.047179275e-10
1.327975844e-09
-1.103230206e-10
1.309816449e-09
-1.152938826e-10
1.288080515e-09
-1.193724848e-10
1.262485674e-09
-1.222497055e-10
1.232656992e-09
-1.23566143e-10
1.198103346e-09
-1.229232925e-10
1.158194791e-09
-1.199129408e-10
1.112144994e-09
-1.141694819e-10
1.059007431e-09
-1.05446758e-10
9.97692351e-10
-9.37132081e-11
9.270110213e-10
-7.924888498e-11
8.457450951e-10
-6.272363958e-11
7.527387368e-10
-4.523466451e-11
6.470020898e-10
-2.829011013e-11
5.278148306e-10
-1.373898986e-11
3.94814955e-10
-3.688445505e-12
2.480540185e-10
8.779984352e-11
-4.250465447e-14
5.765072113e-11
-1.685911298e-13
1.686778857e-10
-3.79612058e-13
2.734602194e-10
-6.782474531e-13
3.722210518e-10
-1.067300866e-12
4.651744525e-10
-1.548754606e-12
5.525251578e-10
-2.124055514e-12
6.344685021e-10
-2.795080969e-12
7.111911262e-10
-3.565831232e-12
7.828718732e-10
-4.443914876e-12
8.496824976e-10
-5.441428344e-12
9.117883021e-10
-6.575199561e-12
9.693485882e-10
-7.866208578e-12
1.022516767e-09
-9.338501081e-12
1.071440254e-09
-1.101784441e-11
1.116260304e-09
-1.29303869e-11
1.15711169e-09
-1.510158102e-11
1.194122386e-09
-1.755497793e-11
1.227413423e-09
-2.031070922e-11
1.257097841e-09
-2.33848777e-11
1.283280528e-09
-2.678863304e-11
1.30605805e-09
-3.052730531e-11
1.32551729e-09
-3.460003561e-11
1.341735767e-09
-3.899859044e-11
1.354779705e-09
-4.370702713e-11
1.364704529e-09
-4.870014866e-11
1.371551937e-09
-5.394262914e-11
1.37535006e-09
-5.93872709e-11
1.376110017e-09
-6.49732975e-11
1.373824141e-09
-7.062427134e-11
1.368461778e-09
-7.624524584e-11
1.359964896e-09
-8.172005589e-11
1.348242457e-09
-8.690682418e-11
1.333162612e-09
-9.163436497e-11
1.31454399e-09
-9.569730281e-11
1.292143453e-09
-9.885385109e-11
1.265642222e-09
-1.008265689e-10
1.23462971e-09
-1.013113722e-10
1.198588149e-09
-9.999701932e-11
1.156880438e-09
-9.659993866e-11
1.108747913e-09
-9.091294433e-11
1.053320437e-09
-8.286582957e-11
9.896452362e-10
-7.258757479e-11
9.167327665e-10
-6.045822508e-11
8.336157453e-10
-4.713648389e-11
7.394169954e-10
-3.354965495e-11
6.334152607e-10
-2.083586069e-11
5.151010361e-10
-1.023324427e-11
3.842123382e-10
-2.912115025e-12
2.40732889e-10
8.48877285e-11
-1.703757541e-14
5.76677587e-11
-6.831721948e-14
1.687291653e-10
-1.559612639e-13
2.735478634e-10
-2.830185439e-13
3.723481091e-10
-4.535395329e-13
4.653449735e-10
-6.726591916e-13
5.527442775e-10
-9.476231641e-13
6.347434661e-10
-1.288460021e-12
7.115319631e-10
-1.7085116e-12
7.832919248e-10
-2.224520079e-12
8.501985061e-10
-2.85621602e-12
9.12419998e-10
-3.625768703e-12
9.701181409e-10
-4.557078187e-12
1.023448076e-09
-5.674881703e-12
1.072558057e-09
-7.003715903e-12
1.117589138e-09
-8.567074798e-12
1.158675049e-09
-1.038665701e-11
1.195941968e-09
-1.248150365e-11
1.229508269e-09
-1.486729675e-11
1.259483634e-09
-1.755608114e-11
1.285969312e-09
-2.055521327e-11
1.309057182e-09
-2.38672146e-11
1.328829291e-09
-2.748876833e-11
1.345357321e-09
-3.14102285e-11
1.358701165e-09
-3.561451176e-11
1.368908812e-09
-4.007623633e-11
1.376013661e-09
-4.476003128e-11
1.380033855e-09
-4.961940718e-11
1.380969393e-09
-5.459429809e-11
1.378799032e-09
-5.960955226e-11
1.373477032e-09
-6.457179133e-11
1.364927135e-09
-6.936711894e-11
1.353037785e-09
-7.385782174e-11
1.337653315e-09
-7.78797811e-11
1.318565949e-09
-8.124093174e-11
1.295504603e-09
-8.37220831e-11
1.268123374e-09
-8.508298427e-11
1.235990611e-09
-8.507506786e-11
1.198580233e-09
-8.346376753e-11
1.155269138e-09
-8.005999522e-11
1.105344141e-09
-7.475884009e-11
1.048019282e-09
-6.758080996e-11
9.824672061e-10
-5.870757338e-11
9.0785953e-10
-4.85055598e-11
8.234137319e-10
-3.753055309e-11
7.284419889e-10
-2.651040188e-11
6.223951097e-10
-1.630629402e-11
5.048969286e-10
-7.85865772e-12
3.757647024e-10
-2.134566577e-12
2.350087982e-10
8.275316192e-11
-1.937513686e-15
5.766969621e-11
-8.622396884e-15
1.687358502e-10
-2.343159264e-14
2.735626726e-10
-5.132231326e-14
3.723759998e-10
-9.914787954e-14
4.653927991e-10
-1.758763124e-13
5.528210059e-10
-2.928884649e-13
6.348604782e-10
-4.641467446e-13
7.117032214e-10
-7.061598202e-13
7.835339379e-10
-1.037753798e-12
8.505301e-10
-1.479653831e-12
9.12861898e-10
-2.053790363e-12
9.706922774e-10
-2.782621219e-12
1.024176907e-09
-3.688462138e-12
1.073463898e-09
-4.792972537e-12
1.118693648e-09
-6.116533703e-12
1.15999861e-09
-7.677820908e-12
1.197503256e-09
-9.492928668e-12
1.231323377e-09
-1.15752304e-11
1.261565936e-09
-1.393476121e-11
1.288328843e-09
-1.657742254e-11
1.311699844e-09
-1.950485429e-11
1.331756723e-09
-2.271309554e-11
1.348565562e-09
-2.619244952e-11
1.362180519e-09
-2.99258287e-11
1.372642191e-09
-3.388828766e-11
1.37997612e-09
-3.804498578e-11
1.384190553e-09
-4.235013172e-11
1.385274539e-09
-4.674478714e-11
1.383193687e-09
-5.115501814e-11
1.377887263e-09
-5.548972857e-11
1.369261845e-09
-5.963825816e-11
1.357186315e-09
-6.346889004e-11
1.341483947e-09
-6.682729529e-11
1.321924355e-09
-6.953800693e-11
1.298215315e-09
-7.140774519e-11
1.269993112e-09
-7.223475437e-11
1.23681762e-09
-7.182292517e-11
1.198168404e-09
-7.000340917e-11
1.153449622e-09
-6.666047453e-11
1.102001206e-09
-6.176045182e-11
1.043119259e-09
-5.537850021e-11
9.760852545e-10
-4.771829636e-11
9.001993261e-10
-3.912102728e-11
8.148164627e-10
-3.006010254e-11
7.193810641e-10
-2.112071806e-11
6.134557251e-10
-1.296498057e-11
4.967411909e-10
-6.285488582e-12
3.690852101e-10
-1.750460848e-12
2.304737703e-10
8.100270108e-11
4.125080748e-15
5.766557113e-11
1.561800306e-14
1.687243573e-10
3.064056224e-14
2.735476501e-10
4.340996047e-14
3.723632304e-10
4.620660049e-14
4.653900024e-10
2.897800632e-14
5.528382345e-10
-2.053042504e-14
6.349099866e-10
-1.168567687e-13
7.117995477e-10
-2.76368828e-13
7.836934499e-10
-5.169987018e-13
8.507707299e-10
-8.57878635e-13
9.13202778e-10
-1.318897177e-12
9.711532959e-10
-1.920198288e-12
1.024778208e-09
-2.681711333e-12
1.074225411e-09
-3.622721823e-12
1.119634659e-09
-4.761484213e-12
1.161137373e-09
-6.114636416e-12
1.198856408e-09
-7.696774469e-12
1.232905515e-09
-9.520194754e-12
1.263389356e-09
-1.159400493e-11
1.290402653e-09
-1.392384108e-11
1.31402968e-09
-1.651111591e-11
1.334343997e-09
-1.935217361e-11
1.351406619e-09
-2.243762766e-11
1.365265973e-09
-2.575113388e-11
1.375955698e-09
-2.926837889e-11
1.383493365e-09
-3.295569357e-11
1.387877868e-09
-3.676837518e-11
1.389087221e-09
-4.064930864e-11
1.38707462e-09
-4.452669278e-11
1.381764647e-09
-4.831290157e-11
1.373048054e-09
-5.190238235e-11
1.360775796e-09
-5.51713892e-11
1.344752954e-09
-5.797807361e-11
1.324731039e-09
-6.016543548e-11
1.300402677e-09
-6.156693324e-11
1.27139461e-09
-6.201648423e-11
1.237267171e-09
-6.136251261e-11
1.197514432e-09
-5.948636208e-11
1.151573471e-09
-5.632230325e-11
1.098837148e-09
-5.187785167e-11
1.038674807e-09
-4.62501673e-11
9.704575702e-10
-3.963616397e-11
8.935853229e-10
-3.233417339e-11
8.075144723e-10
-2.473615138e-11
7.117830423e-10
-1.731088703e-11
6.06030461e-10
-1.058027172e-11
4.90010576e-10
-5.091894714e-12
3.635968336e-10
-1.394115551e-12
2.267759914e-10
7.960858552e-11
5.14825293e-15
5.766042288e-11
1.959348845e-14
1.687099121e-10
4.00107958e-14
2.735272328e-10
6.118143971e-14
3.723420598e-10
7.595141074e-14
4.653752325e-10
7.497171983e-14
5.528392142e-10
4.693154554e-14
6.349380268e-10
-2.139276107e-14
7.11867872e-10
-1.448553828e-13
7.838169125e-10
-3.395554376e-13
8.509654299e-10
-6.225659335e-13
9.134857885e-10
-1.011601343e-12
9.715423313e-10
-1.524638856e-12
1.025291246e-09
-2.17955421e-12
1.074880326e-09
-2.993814368e-12
1.120448919e-09
-3.984013858e-12
1.162127572e-09
-5.165386026e-12
1.20003778e-09
-6.551559963e-12
1.234291689e-09
-8.154037294e-12
1.264991834e-09
-9.98137792e-12
1.292229994e-09
-1.203909543e-11
1.316087397e-09
-1.432841604e-11
1.336633318e-09
-1.684603063e-11
1.353924234e-09
-1.958275486e-11
1.368002697e-09
-2.252294028e-11
1.378895883e-09
-2.564281853e-11
1.386613243e-09
-2.890982214e-11
1.391144871e-09
-3.22804663e-11
1.392457865e-09
-3.569950096e-11
1.390493655e-09
-3.90978916e-11
1.385163038e-09
-4.23919401e-11
1.376342103e-09
-4.54823718e-11
1.363866227e-09
-4.8254513e-11
1.347525095e-09
-5.058020814e-11
1.327056734e-09
-5.232137996e-11
1.302143849e-09
-5.333712645e-11
1.272410356e-09
-5.349314804e-11
1.237423193e-09
-5.267482684e-11
1.196696111e-09
-5.080182502e-11
1.149700469e-09
-4.78433254e-11
1.095878648e-09
-4.383183807e-11
1.03466332e-09
-3.887292961e-11
9.654986617e-10
-3.315000797e-11
8.878624012e-10
-2.692259832e-11
8.012870626e-10
-2.051822254e-11
7.053786664e-10
-1.431826943e-11
5.998305078e-10
-8.739565687e-12
4.84431872e-10
-4.213291637e-12
3.590705593e-10
-1.163384701e-12
2.237260844e-10
7.844520083e-11
4.11189606e-15
5.765631098e-11
1.553242939e-14
1.686984915e-10
3.16656353e-14
2.735110996e-10
4.827402389e-14
3.723254514e-10
5.923593706e-14
4.653642705e-10
5.654845019e-14
5.528419017e-10
3.038477814e-14
6.349641905e-10
-3.065505286e-14
7.119289118e-10
-1.394903097e-13
7.839257478e-10
-3.10210933e-13
8.511361506e-10
-5.578250108e-13
9.137334025e-10
-8.980163635e-13
9.718825227e-10
-1.34682913e-12
1.025740058e-09
-1.92039071e-12
1.075453888e-09
-2.634563092e-12
1.121163091e-09
-3.504472262e-12
1.162997481e-09
-4.54425086e-12
1.201077559e-09
-5.766673003e-12
1.235514111e-09
-7.182389865e-12
1.266407551e-09
-8.799588014e-12
1.293847192e-09
-1.062347629e-11
1.317911286e-09
-1.265521025e-11
1.338665052e-09
-1.489165098e-11
1.356160675e-09
-1.732388826e-11
1.370434935e-09
-1.993681934e-11
1.381508814e-09
-2.270746994e-11
1.389383894e-09
-2.560428704e-11
1.394041688e-09
-2.858546106e-11
1.395439039e-09
-3.159781774e-11
1.393506012e-09
-3.45757681e-11
1.388140988e-09
-3.74402899e-11
1.379206625e-09
-4.009928188e-11
1.366525219e-09
-4.244806199e-11
1.349873875e-09
-4.437249257e-11
1.328981165e-09
-4.575294627e-11
1.303524302e-09
-4.647167588e-11
1.273129086e-09
-4.642138261e-11
1.2373729e-09
-4.551650379e-11
1.195791232e-09
-4.37043991e-11
1.147888365e-09
-4.097672936e-11
1.093150978e-09
-3.737856923e-11
1.03106516e-09
-3.301402309e-11
9.611341157e-10
-2.804797852e-11
8.828963568e-10
-2.270313987e-11
7.959422241e-10
-1.725278754e-11
6.999283143e-10
-1.200977473e-11
5.945874952e-10
-7.313263632e-12
4.797353613e-10
-3.514550785e-12
3.55271847e-10
-9.643258717e-13
2.211758598e-10
7.748087495e-11
2.416926997e-15
5.765389406e-11
9.062538357e-15
1.686918459e-10
1.805111509e-14
2.73502111e-10
2.605902486e-14
3.723174435e-10
2.803946776e-14
4.653622901e-10
1.738138063e-14
5.528525598e-10
-1.42181066e-14
6.3499579e-10
-7.645773973e-14
7.119911515e-10
-1.803538809e-13
7.840296439e-10
-3.381003941e-13
8.512938971e-10
-5.628329046e-13
9.13958135e-10
-8.683885438e-13
9.721880783e-10
-1.269079097e-12
1.026140749e-09
-1.779391852e-12
1.075964201e-09
-2.413634553e-12
1.121797334e-09
-3.185654379e-12
1.163769501e-09
-4.108499341e-12
1.202000404e-09
-5.193978418e-12
1.23659959e-09
-6.451929062e-12
1.267665501e-09
-7.890107268e-12
1.29528537e-09
-9.513198159e-12
1.319534376e-09
-1.132233234e-11
1.340474186e-09
-1.331423063e-11
1.358152573e-09
-1.548035542e-11
1.372601059e-09
-1.780589572e-11
1.383834355e-09
-2.026877314e-11
1.391846771e-09
-2.283839184e-11
1.396611307e-09
-2.547478997e-11
1.398075437e-09
-2.812714052e-11
1.396158362e-09
-3.073360012e-11
1.390747448e-09
-3.322041739e-11
1.381693442e-09
-3.550298146e-11
1.368807783e-09
-3.748697423e-11
1.351857868e-09
-3.907181006e-11
1.330566e-09
-4.015507209e-11
1.304607565e-09
-4.063927351e-11
1.273613287e-09
-4.043956476e-11
1.237173191e-09
-3.949297216e-11
1.19484464e-09
-3.776697227e-11
1.146162365e-09
-3.526777922e-11
1.090651785e-09
-3.204627444e-11
1.027843655e-09
-2.820118699e-11
9.572890283e-10
-2.387920147e-11
8.785743713e-10
-1.927170821e-11
7.913347308e-10
-1.46085022e-11
6.952651082e-10
-1.014906998e-11
5.901280629e-10
-6.172363885e-12
4.757586551e-10
-2.965932544e-12
3.520654154e-10
-8.155251996e-13
2.190254523e-10
7.666534976e-11
5.706942773e-16
5.765332336e-11
1.969963495e-15
1.686904467e-10
3.02891365e-15
2.73501052e-10
1.33983743e-15
3.723191325e-10
-7.057703997e-15
4.653706876e-10
-2.756879599e-14
5.528730709e-10
-6.712164191e-14
6.350353428e-10
-1.339525895e-13
7.120579824e-10
-2.374724612e-13
7.841331638e-10
-3.881939106e-13
8.514446185e-10
-5.975746782e-13
9.141675158e-10
-8.778083131e-13