/*--------------------------------*- C++ -*----------------------------------*\
  =========                 |
  \\      /  F ield         | OpenFOAM: The Open Source CFD Toolbox
   \\    /   O peration     | Website:  https://openfoam.org
    \\  /    A nd           | Version:  7
     \\/     M anipulation  |
\*---------------------------------------------------------------------------*/
FoamFile
{
    version     2.0;
    format      ascii;
    class       volScalarField;
    location    "0.0009";
    object      rho;
}
// * * * * * * * * * * * * * * * * * * * * * * * * * * * * * * * * * * * * * //

dimensions      [1 -3 0 0 0 0 0];

internalField   nonuniform List<scalar> 
1167
(
940.0195144
939.8180374
939.7252032
939.5261375
939.2320362
938.8493428
938.3838573
937.8409876
937.226155
936.5446926
935.8017749
935.002589
934.1522402
933.2559598
932.3187111
931.3454959
930.3412083
929.3106268
928.2583988
927.1892881
926.1074045
925.0170042
923.9222732
922.8267641
921.7341186
920.6477423
919.5706736
918.5056708
917.4553705
916.422103
915.4077677
914.4143091
913.4431206
912.4955598
911.5726592
910.6752045
909.8037101
908.9587341
908.1403074
907.3485051
906.5833102
905.8443429
905.131199
904.4434043
903.7803614
903.1413799
902.5256128
901.932248
901.3603121
900.8089111
900.2770944
939.6167231
939.5276293
939.3365969
939.0544224
938.6869613
938.2400023
937.718508
937.1275876
936.4722219
935.7572567
934.9875175
934.1677336
933.3027037
932.3970648
931.455299
930.4821189
929.4816366
928.4584677
927.4166508
926.3602125
925.2932024
924.2192106
923.141808
922.0645427
920.9904136
919.9223814
918.8634263
917.8159142
916.7821777
915.764458
914.7644762
913.7840292
912.8244936
911.8872257
910.9732111
910.0833471
909.2182037
908.3785573
907.5645313
906.7763904
906.0143737
905.278309
904.5680437
903.8833348
903.2238082
902.5889165
901.9780858
901.3905561
900.8255436
900.2820772
939.4156146
939.3310223
939.1496931
938.8815409
938.5324412
938.1074623
937.6115764
937.0493838
936.4254878
935.7443762
935.0104868
934.2281498
933.401647
932.5353646
931.6332727
930.699533
929.7380822
928.7528405
927.7476673
926.726184
925.6918377
924.6482722
923.5984914
922.5456729
921.4928207
920.4425441
919.3975574
918.3602258
917.3326499
916.3170315
915.3150557
914.32842
913.3586562
912.4070036
911.4747708
910.5627766
909.6720407
908.8032878
907.9571545
907.1344381
906.3355447
905.5610594
904.8116091
904.0876752
903.3896935
902.7179933
902.0727534
901.4538445
900.8608107
900.2927888
939.2147476
939.1352719
938.9647841
938.7126188
938.38445
937.9846865
937.5180663
936.9888771
936.4012726
935.7593755
935.0672353
934.3287885
933.5478645
932.7283614
931.8740729
930.9884775
930.07519
929.1377699
928.179502
927.2038413
926.2137204
925.212356
924.2025621
923.1870701
922.1686287
921.1495148
920.1322084
919.1187146
918.111061
917.1110538
916.120159
915.1400764
914.171783
913.2165976
912.2753196
911.3488654
910.4376876
909.5425166
908.6636287
907.8015996
906.9567644
906.1296351
905.3211157
904.5320223
903.7637769
903.0183047
902.2979193
901.6054137
900.9439061
900.3164395
939.0155831
938.942228
938.7848375
938.5521825
938.2491011
937.8799281
937.4487559
936.9596716
936.4163034
935.8223746
935.1815182
934.4972585
933.7729976
933.0121083
932.2178893
931.3935947
930.542339
929.6670151
928.7707365
927.8563782
926.9265423
925.9840903
925.0313143
924.0709123
923.1048422
922.1356193
921.1649425
920.1949305
919.2271019
918.2632345
917.3044769
916.3522062
915.4072484
914.4705572
913.5425157
912.623657
911.713873
910.8132237
909.9210067
909.0367329
908.1593346
907.2876498
906.4204128
905.5560946
904.6936529
903.8322006
902.9720251
902.1149073
901.264771
900.4287218
938.8521901
938.78025
938.626168
938.3984175
938.101619
937.7402393
937.3180213
936.8389942
936.3067393
935.7247927
935.0966667
934.4257522
933.7153299
932.9686509
932.188881
931.3791639
930.5424438
929.6815262
928.7993847
927.8988286
926.9823263
926.0526465
925.112049
924.1630373
923.2076697
922.2481868
921.2864187
920.3242403
919.3632276
918.4049541
917.4505423
916.5012132
915.5576641
914.620717
913.6906134
912.7676968
911.8518885
910.9430052
910.040649
909.1443482
908.2537832
907.3684137
906.48837
905.6136048
904.7447681
903.8824815
903.0269891
902.1771232
901.3278437
900.4677257
938.7313117
938.6592179
938.5047555
938.2763545
937.9788076
937.6164915
937.1932426
936.7128595
936.1791576
935.5955772
934.9656089
934.2926237
933.5799008
932.8307003
932.0482709
931.2356176
930.3956706
929.5313304
928.6457161
927.7413561
926.8210089
925.8872452
924.9424801
923.9891794
923.0293453
922.0652843
921.0986991
920.1314507
919.1650172
918.2008736
917.2400755
916.2836491
915.3323195
914.3866683
913.4470518
912.5137433
911.5868527
910.6664635
909.7526273
908.8457209
907.946097
907.0547866
906.1727782
905.3018812
904.4437155
903.6001951
902.7729227
901.962799
901.1705281
900.3972778
938.6105886
938.5381585
938.3828946
938.1533244
937.8544098
937.4902711
937.0650391
936.5823589
936.0459491
935.4594737
934.8263706
934.1499874
933.43364
932.6807042
931.8942809
931.0774352
930.2331537
929.3645748
928.4744901
927.5656535
926.6409226
925.7026166
924.7534843
923.7955826
922.8312654
921.8624063
920.8910514
919.9185888
918.9468135
917.9767578
917.0097449
916.0464682
915.0878979
914.1344619
913.1868269
912.2454258
911.3108617
910.3836627
909.4647998
908.555338
907.6568818
906.7710708
905.9002562
905.0464055
904.2117727
903.3982373
902.6069352
901.8386185
901.0935409
900.3713308
938.4898907
938.4171492
938.261202
938.0306442
937.7305505
937.3648689
936.9379297
936.4533103
935.9147328
935.3258287
934.6901269
934.0110188
933.2918436
932.5359163
931.7464138
930.9264423
930.0791055
929.2074161
928.3141704
927.402331
926.4744115
925.5330058
924.5806063
923.6193812
922.6515252
921.6789684
920.703539
919.7268147
918.7502316
917.77514
916.8025046
915.8334495
914.8686652
913.9091775
912.9555448
912.0090154
911.070333
910.1410147
909.2223542
908.3165132
907.4252804
906.5511373
905.6961982
904.8625075
904.0518817
903.2652465
902.5029372
901.7647837
901.0498302
900.3570106
938.3691684
938.2961942
938.1397355
937.9085585
937.6074948
937.240791
936.8124961
936.3264934
935.786389
935.1958395
934.558385
933.8774467
933.1564024
932.3985778
931.6071598
930.7853269
929.9361608
929.0625486
928.1674298
927.2536582
926.323647
925.3801875
924.4254168
923.4617662
922.4910994
921.5155911
920.5367342
919.5564175
918.5758058
917.596424
916.6192844
915.6455816
914.6763758
913.712727
912.7559031
911.8072075
910.868275
909.9407329
909.0267321
908.1283467
907.2478658
906.3874535
905.5489143
904.7338924
903.9431931
903.1771134
902.4353328
901.7172359
901.0216958
900.3477608
938.248415
938.175277
938.0184895
937.7868866
937.4851474
937.1177836
936.6886121
936.2016934
935.6606486
935.0691137
934.4306363
933.7486582
933.0265804
932.2677221
931.4752742
930.6525112
929.8022613
928.9275217
928.0313399
927.1162518
926.1849037
925.2398403
924.2833252
923.3176402
922.3447452
921.366642
920.3849964
919.401474
918.4175825
917.4346112
916.4540291
915.4769188
914.5048919
913.5390794
912.581276
911.6330616
910.6964584
909.7733998
908.8662412
907.9769891
907.1079754
906.2607883
905.4369713
904.6374642
903.862583
903.1122136
902.3858007
901.6824893
901.0012129
900.3410466
938.1276291
938.0543815
937.8974878
937.6655371
937.3633878
936.9956298
936.5660261
936.0785055
935.5369761
934.944954
934.3059832
933.6235144
932.9009586
932.1416172
931.3487968
930.5254823
929.6746358
928.7993168
927.9023973
926.9863962
926.0541039
925.1077852
924.1499276
923.1825293
922.2078239
921.2275307
920.2435909
919.2574855
918.2710358
917.2854908
916.3025118
915.3235242
914.350149
913.3841142
912.4272304
911.481608
910.5491907
909.6323125
908.7330481
907.8534938
906.9954575
906.1602825
905.3491666
904.5624629
903.800243
903.0621776
902.3476274
901.655673
900.9853659
900.3358415
938.0068553
937.9336198
937.7765848
937.5444207
937.2421533
936.8740971
936.4443104
935.9565919
935.4147556
934.8225628
934.1834233
933.5007897
932.7780924
932.0186926
931.2256724
930.4020989
929.5509398
928.675351
927.7779232
926.8613648
925.9283068
924.9810529
924.0221113
923.0533745
922.0771849
921.0952239
920.1094408
919.1215149
918.133167
917.1460489
916.1617401
915.1821614
914.2088957
913.2441357
912.2897453
911.3480496
910.4210309
909.5110372
908.6199467
907.7497862
906.9018643
906.0773743
905.2770693
904.5010822
903.7493084
903.0213565
902.3164754
901.6338144
900.972471
900.3316116
937.8861394
937.8128621
937.6557371
937.4234471
937.1211731
936.7529516
936.3231325
935.8353903
935.2935444
934.7012809
934.0621347
933.3795514
932.6569374
931.8975411
931.1045008
930.2808521
929.4296802
928.5539003
927.6561664
926.7392975
925.8056686
924.8578178
923.8979896
922.9283297
921.9509533
920.9678323
919.9807284
918.9916521
918.002214
917.0144521
916.0299628
915.0508756
914.0790602
913.1166747
912.1659602
911.2290492
910.3081403
909.4052571
908.5223091
907.6609152
906.822203
906.0071879
905.2162393
904.4494077
903.7064754
902.9870389
902.2902798
901.615421
900.9616106
900.3280464
937.7653939
937.6920889
937.5349063
937.3026382
937.0003164
936.6321062
936.202229
935.714549
935.1727869
934.5806175
933.9415783
933.2591223
932.5366384
931.7773591
930.9844203
930.1608535
929.3097959
928.4339632
927.5361494
926.6190947
925.6851034
924.7368916
923.7764544
922.8061971
921.828027
920.8442163
919.8564058
918.8667931
917.8771504
916.889496
915.9058161
914.9281618
913.958769
912.9996659
912.0533808
911.1218084
910.207286
909.3115008
908.4363674
907.5831243
906.7527781
905.9461984
905.1634765
904.4046269
903.6693818
902.9573119
902.2675922
901.5994975
900.9522143
900.3249633
937.644621
937.571295
937.41407
937.1818897
936.8795045
936.5113678
936.0814438
935.5938694
935.0522384
934.4602154
933.8213412
933.1390767
932.4167941
931.657711
930.864963
930.0416764
929.190747
928.3149887
927.4172991
926.5001638
925.5661023
924.6176568
923.6569576
922.6863553
921.7078909
920.7237359
919.7358382
918.7462592
917.7571244
916.7703577
915.7882975
914.8129256
913.8466702
912.8915907
911.9501467
911.0242863
910.1161419
909.227301
908.3595818
907.5139095
906.6912524
905.8922089
905.1168286
904.3650611
903.6366378
902.9310521
902.2475478
901.5854259
900.9439086
900.3222373
937.5238252
937.4504814
937.2933327
937.0611379
936.7587031
936.390657
935.9608256
935.4732606
934.9317876
934.3399426
933.7012707
933.0192411
932.2972106
931.5383831
930.7459852
929.9229683
929.0722602
928.1967315
927.299246
926.3821812
925.4482538
924.4997684
923.5391086
922.5684416
921.5900695
920.6060076
919.6185421
918.6295952
917.6415984
916.6564727
915.6766227
914.7042387
913.7416183
912.7910378
911.8547122
910.934706
910.03286
909.1507976
908.2900158
907.4513842
906.6357855
905.8435972
905.0748549
904.3294684
903.6071821
902.9074281
902.2295152
901.5727681
900.9364387
900.319786
937.4030121
937.3297206
937.1726157
936.9403794
936.6380016
936.2699573
935.8402446
935.3527577
934.8113918
934.219747
933.581304
932.8995418
932.1778027
931.4193503
930.627311
929.8046019
928.9541945
928.0790666
927.1818239
926.26501
925.3313476
924.3830325
923.4226669
922.4522477
921.4743284
920.4908386
919.5042306
918.5165458
917.5301416
916.5472493
915.5701331
914.6012305
913.6426595
912.6968735
911.7658332
910.8516948
909.9560204
909.0804674
908.2262455
907.3941884
906.585118
905.7992288
905.0365601
904.2969983
903.5803089
902.8858726
902.2130595
901.5612158
900.9296206
900.3175483
937.2823128
937.2090255
937.0518904
936.8196167
936.5173361
936.1492671
935.7196825
935.2323542
934.6911089
934.0996113
933.461418
932.779962
932.0586173
931.3005479
930.5088562
929.6865131
928.8365302
927.9618331
927.0649409
926.1485868
925.2152777
924.2674439
923.3075089
922.3377406
921.3605186
920.378054
919.392674
918.4067157
917.4223847
916.4421939
915.4682629
914.5032006
913.5490175
912.6081621
911.6825172
910.7741531
909.8844863
909.0151718
908.1671628
907.3413067
906.5382854
905.7582374
905.0011848
904.2670295
903.5554774
902.8659518
902.1978503
901.5505384
900.923319
900.3154803
937.1616271
937.0883253
936.9311621
936.6988861
936.3966761
936.0286336
935.5991405
935.1119798
934.5709276
933.9796567
933.3417199
932.6605942
931.9395912
931.1818971
930.3905936
929.5686681
928.7192395
927.8449841
926.9485465
926.0327789
925.099983
924.1528323
923.1935593
922.2247227
921.2485224
920.267441
919.283678
918.2998496
917.318052
916.3408891
915.3705671
914.4095387
913.4599787
912.5241182
911.6039132
910.7011916
909.8173897
908.9540192
908.1119114
907.2919196
906.4945567
905.7199707
904.9681602
904.2390488
903.5322869
902.8473438
902.1836412
901.5405621
900.9174309
900.3135478
937.040941
936.9676254
936.8104362
936.5782626
936.2760265
935.9081044
935.4786219
934.9916373
934.4507887
933.8597574
933.2221105
932.5413155
931.8206764
931.0633868
930.2725086
929.4511381
928.6022339
927.7284985
926.8327262
925.9175537
924.9854603
924.0391489
923.0807802
922.113122
921.1382805
920.1588696
919.177161
918.1957134
917.2168309
916.2429571
915.276503
914.3197095
913.3748962
912.4440769
911.5292723
910.6320805
909.7539875
908.896295
908.0598107
907.245377
906.4533573
905.6839176
904.9370408
904.2126758
903.5104233
902.8297966
902.1702402
901.5311524
900.9118771
900.311725
936.9202598
936.8469315
936.6897602
936.4576508
936.155393
935.7875972
935.3581933
934.8713306
934.3306954
933.7399155
933.1025724
932.4221249
931.7018706
930.9450126
930.1546278
929.3338573
928.4855038
927.6123646
926.7173538
925.8028991
924.8717378
923.9263667
922.9692154
922.0028765
921.0297288
920.052221
919.0728733
918.094091
917.1183978
916.1480571
915.1856653
914.2332463
913.2932505
912.3674769
911.4580071
910.566221
909.6936576
908.8414256
908.0103196
907.2011798
906.4142362
905.6496785
904.907482
904.187616
903.4896425
902.8131146
902.1574977
901.5222043
900.9065954
900.3099915
936.7995887
936.7262504
936.5691892
936.3370564
936.0348199
935.6671184
935.2378751
934.7510694
934.2106522
933.6201346
932.9831084
932.3030242
931.583175
930.8267842
930.0370076
929.216792
928.3690477
927.4966785
926.6024265
925.6888094
924.758725
923.8144674
922.8587325
921.893938
920.9227291
919.9473822
918.9706517
917.9947926
917.0225003
916.0559378
915.0976956
914.1498177
913.2145976
912.2938937
911.3896256
910.5031185
909.6359149
908.7889463
907.9630333
907.1589281
906.3768332
905.6169351
904.8792316
904.1636354
903.4697507
902.7971424
902.1452955
901.5136347
900.901537
900.3083313
911.3237193
910.442398
909.5803627
908.7384794
907.9175835
907.1183008
906.3408605
905.5854338
904.8520433
904.1405483
903.4505942
902.781757
902.1335397
901.5053779
900.896663
900.3067315
)
;

boundaryField
{
    front_top
    {
        type            wedge;
    }
    front_middle
    {
        type            wedge;
    }
    front_bottom
    {
        type            wedge;
    }
    back_top
    {
        type            wedge;
    }
    back_middle
    {
        type            wedge;
    }
    back_bottom
    {
        type            wedge;
    }
    axis_top
    {
        type            symmetryPlane;
    }
    axis_middle
    {
        type            symmetryPlane;
    }
    axis_bottom
    {
        type            symmetryPlane;
    }
    wall_top
    {
        type            calculated;
        value           nonuniform 0();
    }
    wall_middle
    {
        type            calculated;
        value           uniform 900.0184441;
    }
    wall_bottom
    {
        type            calculated;
        value           uniform 900.0184441;
    }
    inlet
    {
        type            calculated;
        value           nonuniform 0();
    }
    outlet
    {
        type            calculated;
        value           nonuniform 0();
    }
    procBoundary2to1
    {
        type            processor;
        value           nonuniform List<scalar> 
51
(
936.6789866
936.6057174
936.4486378
936.2164856
935.91437
935.5466738
935.1175969
934.6309822
934.0906748
933.50042
932.8637232
932.1840183
931.4646186
930.7088046
929.9195621
929.0999467
928.2528704
927.3813633
926.4879483
925.5753751
924.6464182
923.7034692
922.7493073
921.7862943
920.817208
919.8443076
918.8703532
917.8977032
916.9289096
915.9663037
915.0122789
914.0690024
913.1385565
912.2228937
912.2228937
911.2599474
910.3837132
909.5266753
908.6897171
907.8736684
907.0790385
906.306086
905.5549709
904.8257413
904.1182059
903.43205
902.7668599
902.1221553
901.4973812
900.8919423
900.3051821
)
;
    }
    procBoundary2to3
    {
        type            processor;
        value           nonuniform List<scalar> 
51
(
940.221307
939.9236885
939.9236885
939.7182341
939.4145877
939.0197237
938.5394336
937.9795599
937.3457638
936.6436952
935.8788156
935.0566313
934.1825845
933.262234
932.3009271
931.304017
930.2766614
929.2240771
928.1511435
927.0628114
925.9636204
924.8579407
923.749949
922.6436583
921.5426229
920.4501849
919.369513
918.3033818
917.2541584
916.224099
915.2151029
914.2286078
913.2661699
912.328602
911.4169325
910.5314463
909.6726735
908.8406634
908.0353162
907.2565784
906.5040126
905.777137
905.0753679
904.3980818
903.7445547
903.1140145
902.5055727
901.9184311
901.3516654
900.8044598
900.2759133
)
;
    }
}


// ************************************************************************* //
