/*--------------------------------*- C++ -*----------------------------------*\
  =========                 |
  \\      /  F ield         | OpenFOAM: The Open Source CFD Toolbox
   \\    /   O peration     | Website:  https://openfoam.org
    \\  /    A nd           | Version:  7
     \\/     M anipulation  |
\*---------------------------------------------------------------------------*/
FoamFile
{
    version     2.0;
    format      ascii;
    class       volScalarField;
    location    "0.0009";
    object      T;
}
// * * * * * * * * * * * * * * * * * * * * * * * * * * * * * * * * * * * * * //

dimensions      [0 0 0 1 0 0 0];

internalField   nonuniform List<scalar> 
1167
(
450.1701405
450.4739233
450.6139406
450.9142749
451.3582243
451.936321
452.6401191
453.4618017
454.3935565
455.4277155
456.5568524
457.7735131
459.0703489
460.4397914
461.8746463
463.3676195
464.9115345
466.499341
468.1241355
469.7787765
471.4570747
473.1525573
474.8587993
476.5703068
478.2813928
479.986688
481.6813505
483.3609364
485.0211545
486.6581619
488.2687698
489.8496923
491.3984996
492.9128042
494.3907253
495.8307705
497.2318789
498.5929189
499.9136092
501.1936035
502.4327097
503.6313316
504.7899232
505.9090625
506.9895397
508.0323081
509.0385896
510.0095613
510.946677
511.8512731
512.7247899
450.777591
450.9120238
451.2003567
451.626469
452.1817565
452.8577635
453.6473165
454.543044
455.5377811
456.6245695
457.7964755
459.0466971
460.3683029
461.7545795
463.1990154
464.694705
466.2356206
467.8149122
469.4265683
471.0645449
472.7227095
474.3955902
476.0776947
477.7635153
479.4483545
481.1275316
482.7962913
484.4508072
486.0872715
487.7019897
489.2920641
490.8544551
492.3867723
493.886643
495.3522747
496.7820089
498.1747078
499.5288985
500.8441608
502.119849
503.3553627
504.5507735
505.706129
506.8216319
507.8977078
508.9350752
509.934507
510.8970922
511.8239704
512.7166008
451.081078
451.2087725
451.4825718
451.8876639
452.4153885
453.0583479
453.8093206
454.6616702
455.6087674
456.644162
457.7614753
458.954481
460.2170088
461.5427041
462.9258202
464.3602837
465.8403295
467.3601777
468.9140994
470.4966887
472.1027658
473.7267996
475.3642086
477.0100984
478.6598022
480.3092306
481.9540915
483.5906052
485.2153773
486.8248233
488.4161502
489.986522
491.5333461
493.0544784
494.5476498
496.0113631
497.4437911
498.8435719
500.2094819
501.5400333
502.8343683
504.0913384
505.3097258
506.4885492
507.6269019
508.7240537
509.7795239
510.7933421
511.7660818
512.6989967
451.3843303
451.5043519
451.7618853
452.1429697
452.6392209
453.2442057
453.9510211
454.7534651
455.6455508
456.6213425
457.6750134
458.8008997
459.9934876
461.2471391
462.5563516
463.9160789
465.3210365
466.7659912
468.2460977
469.7562118
471.29196
472.8484907
474.4215403
476.0069369
477.6004452
479.198533
480.797317
482.3936287
483.9842356
485.5662281
487.1372119
488.6944005
490.2361368
491.7602059
493.2652069
494.749542
496.2123485
497.6523117
499.0688423
500.4608655
501.8276913
503.1683404
504.4811934
505.7647663
507.0165801
508.2333225
509.4110289
510.5449308
511.6297046
512.6601293
451.6851405
451.7959651
452.0338086
452.3855354
452.8439943
453.4028275
454.0560686
454.7977766
455.6227161
456.5255122
457.5009264
458.5438795
459.6494679
460.8128188
462.0291544
463.293744
464.6020477
465.9498407
467.3325314
468.7458665
470.1859853
471.6485952
473.1302567
474.6268697
476.1354573
477.6521449
479.1743066
480.6986339
482.2227365
483.7437943
485.2599596
486.7690075
488.2695703
489.7600667
491.2398139
492.7078842
494.1643714
495.6091007
497.0431238
498.4671578
499.8828605
501.2920559
502.6967503
504.0993942
505.5016644
506.9049973
508.3089221
509.7105194
511.1033337
512.4756334
451.9320182
452.0407425
452.2736657
452.6180925
453.0671914
453.6143948
454.2542544
454.9809052
455.7891707
456.6739488
457.6301729
458.652956
459.7375693
460.8793167
462.0736161
463.3158994
464.6018826
465.9274721
467.28829
468.6801839
470.0995011
471.5420958
473.0045823
474.483169
475.9747289
477.4758241
478.9836326
480.4952379
482.0081703
483.5199434
485.0287631
486.5326654
488.0305016
489.5209156
491.003467
492.4775491
493.9432276
495.400737
496.8506593
498.2937012
499.7303295
501.1613719
502.5865767
504.0059782
505.4184771
506.8230122
508.2191315
509.6086902
510.999908
512.4115551
452.1147139
452.2236987
452.4572572
452.8027572
453.253106
453.8018714
454.4434632
455.1723659
455.9830482
456.8705536
457.829849
458.8560785
459.9445168
461.0904554
462.2891858
463.5363539
464.8276992
466.1589834
467.5256052
468.9238468
470.3496083
471.7990508
473.268549
474.7543697
476.2534745
477.7623227
479.2782925
480.798491
482.3206043
483.842304
485.3619061
486.8777592
488.3886771
489.8936922
491.3921898
492.8836824
494.3679415
495.8447795
497.3140594
498.7751187
500.2273295
501.6689612
503.0983397
504.5124439
505.9085399
507.2833949
508.6342628
509.9595297
511.2578963
512.5272952
452.2972219
452.4067433
452.6415745
452.9889336
453.4414718
453.9931449
454.6379177
455.3705079
456.1855328
457.0776975
458.0420501
459.0737722
460.1680839
461.3201013
462.5253434
463.7793656
465.0778217
466.4161083
467.7901281
469.1958164
470.6289184
472.0859853
473.5628725
475.0564822
476.5632277
478.0802446
479.6043739
481.1334658
482.6647099
484.1964779
485.7266671
487.2541561
488.7773747
490.2956035
491.8077368
493.3130334
494.810474
496.2991521
497.7774407
499.2435493
500.6948012
502.1284435
503.5405479
504.9277825
506.2863263
507.6129457
508.9056039
510.1628842
511.3841835
512.5699285
452.4797387
452.5897593
452.8256849
453.1746293
453.6290718
454.1832297
454.8307653
455.5664997
456.3850457
457.2811584
458.2497489
459.2859322
460.3848941
461.5418437
462.7521846
464.0114093
465.3149916
466.6585201
468.0378909
469.4487153
470.8872705
472.3496815
473.8322011
475.331559
476.8444168
478.3678233
479.898962
481.4353879
482.974858
484.5152457
486.0550178
487.5923747
489.1261916
490.6548001
492.1772645
493.6915373
495.1963638
496.6892367
498.1679882
499.6290335
501.0693641
502.4848273
503.8718372
505.2268989
506.5468682
507.8300378
509.075661
510.2838203
511.4558946
512.5934589
452.6623394
452.7727405
453.0095009
453.3594732
453.8155036
454.3713572
455.0211219
455.759155
456.5802451
457.4791096
458.4506425
459.4899132
460.5920487
461.7522412
462.9658786
464.2283417
465.5351371
466.882046
468.2647433
469.6790074
471.1212712
472.587353
474.0740585
475.5777086
477.0954828
478.6240489
480.1611188
481.7037608
483.2501613
484.7979218
486.3454349
487.890791
489.4322774
490.968168
492.49639
494.0147963
495.5206912
497.0113694
498.4832611
499.9328936
501.3564214
502.7501751
504.111046
505.436168
506.7240285
507.9739401
509.1862285
510.3617106
511.502055
512.6086584
452.8450343
452.9557115
453.1930307
453.5437386
454.0009112
454.5579108
455.2091769
455.9487973
456.7715373
457.6721445
458.6455011
459.6866447
460.7906656
461.9527652
463.1683246
464.4325758
465.7414139
467.0904513
468.4751946
469.8919139
471.3366812
472.8056981
474.2955746
475.8028659
477.3246031
478.8577261
480.3996782
481.9478808
483.4999823
485.0539569
486.607476
488.1588055
489.7053537
491.2452744
492.7756443
494.2938611
495.7965908
497.2806165
498.7420166
500.1774045
501.5828437
502.955578
504.2929085
505.5931049
506.8554488
508.0799254
509.2672489
510.4186358
511.5356635
512.6196913
453.0278253
453.1386969
453.3762381
453.7275634
454.1854761
454.7432184
455.3953107
456.1360397
456.9597336
457.8613216
458.8356895
459.8778609
460.9829094
462.1460626
463.362523
464.6279659
465.9380809
467.2883835
468.6746505
470.0931788
471.5398176
473.0112033
474.5035993
476.0140037
477.5390218
479.0760378
480.6220644
482.1748146
483.7314438
485.2899891
486.8478163
488.402644
489.9518591
491.4926563
493.0220746
494.5366488
496.0331531
497.5077097
498.9568298
500.3769655
501.7650124
503.1186011
504.4355875
505.7151926
506.9570989
508.1616474
509.3296958
510.4625719
511.5616662
512.6282447
453.2106451
453.3215269
453.5593433
453.9110826
454.3692926
454.9276318
455.5801711
456.3213937
457.1457695
458.0478533
459.0227339
460.0654306
461.1709864
462.3345357
463.5516238
464.8178
466.1287446
467.4798231
468.867247
470.2870202
471.735239
473.2084806
474.7029769
476.2158918
477.7436621
479.2837323
480.8331036
482.3891772
483.9492668
485.5107715
487.0711832
488.6274291
490.1769486
491.7161863
493.2420833
494.7508166
496.239084
497.7029701
499.1392888
500.5445928
501.916576
503.2531076
504.5527632
505.8151237
507.0401621
508.2283258
509.3806603
510.4983872
511.5828256
512.6351955
453.3934243
453.5043979
453.742412
454.0944328
454.5527711
455.1115053
455.7642627
456.5057133
457.3303172
458.2327426
459.2078866
460.2507772
461.3564927
462.520339
463.7377745
465.0043961
466.3157022
467.6674286
469.0556892
470.4763168
471.9258045
473.4003661
474.8966442
476.4114094
477.9414538
479.4837675
481.0356463
482.5939701
484.156224
485.7191943
487.2803407
488.8362527
490.3839051
491.919787
493.4402255
494.9416928
496.420528
497.8733248
499.2968376
500.6882694
502.045603
503.3669942
504.6516412
505.8992631
507.1100207
508.2843859
509.4235191
510.528526
511.6006471
512.641054
453.5762953
453.6873395
453.9255022
454.2775804
454.7361095
455.2949707
455.947985
456.6895324
457.5142218
458.4167367
459.3919692
460.4349344
461.540736
462.7047032
463.9222968
465.1891192
466.5005874
467.8527442
469.2414873
470.662771
472.1131981
473.5887063
475.0863264
476.6024249
478.1341185
479.6779273
481.2313353
482.7909268
484.353929
485.9171552
487.4774421
489.031496
490.5757007
492.1067419
493.6204776
495.1137496
496.5826647
498.024349
499.4355418
500.814056
502.1580687
503.4659717
504.7374169
505.9721854
507.1705238
508.3329503
509.4606404
510.5546187
511.6160664
512.6461206
453.759255
453.8703597
454.1086479
454.4606839
454.9194274
455.478321
456.1315749
456.873153
457.6978555
458.6003799
459.5756116
460.6185526
461.7243304
462.8882957
464.1059088
465.3726248
466.6842315
468.0366199
469.4255268
470.8472998
472.2982087
473.7744605
475.2728761
476.7899068
478.3224599
479.8672122
481.4211642
482.9811117
484.5437211
486.1059495
487.6640697
489.2148899
490.7544797
492.2794655
493.7858058
495.2702488
496.729222
498.1600058
499.559491
500.9259935
502.2577525
503.5536005
504.81326
506.0366215
507.2239364
508.3758531
509.4934384
510.5776775
511.6296963
512.6506001
453.9422966
454.0534568
454.2916909
454.6438394
455.1027765
455.6616768
456.3149582
457.0567131
457.8813876
458.7838729
459.7590468
460.8018965
461.9075722
463.0714439
464.2888307
465.5554552
466.8670553
468.2194338
469.6083785
471.0304042
472.4814743
473.9581643
475.4569008
476.9744199
478.5072203
480.0522214
481.6058904
483.1652382
484.7264446
486.2864652
487.8414614
489.3879033
490.9220599
492.4402039
493.9386767
495.4140332
496.8631628
498.2832845
499.6718041
501.0271269
502.3476314
503.6325095
504.8815103
506.094592
507.2719884
508.4144517
509.5229458
510.5984204
511.6419549
512.6546285
454.1254115
454.2365211
454.4747502
454.8270525
455.2860212
455.8450628
456.4983323
457.2401595
458.0648832
458.9672956
459.9423706
460.9850791
462.0905918
463.2541859
464.4713325
465.7378058
467.0492758
468.4013784
469.7902991
471.2122956
472.6633207
474.1401184
475.6387741
477.1562883
478.6887645
480.2332546
481.7859616
483.3437047
484.9027755
486.4596341
488.0106571
489.551915
491.0799557
492.590762
494.0810755
495.5472986
496.9867642
498.3966341
499.7747754
501.1196523
502.4297428
503.704538
504.9437841
506.1474805
507.3158303
508.4496724
509.549874
510.617352
511.653144
512.6583056
454.3084011
454.419533
454.6578692
455.0103191
455.4692585
456.0284819
456.6817248
457.4235017
458.248254
459.1506739
460.1256181
461.1681258
462.2733172
463.4366207
464.6535431
465.9197751
467.230923
468.5827018
469.9714303
471.3930715
472.8439117
474.3203298
475.8186875
477.3355612
478.867324
480.4105838
481.9617363
483.5171311
485.073294
486.6262339
488.1725501
489.7080347
491.2293997
492.7326301
494.2145865
495.6718054
497.1018502
498.5018852
499.8701903
501.2052092
502.5056478
503.7710906
505.0013149
506.1962982
507.3563435
508.4822235
509.5747632
510.6348503
511.6634856
512.6617042
454.4914172
454.6025998
454.84104
455.1935842
455.6525347
456.2118618
456.8651341
457.6068468
458.4315169
459.3338229
460.3086252
461.3508947
462.4558451
463.6188692
464.8355046
466.1014147
467.4120391
468.7634761
470.1518499
471.5729371
473.0233416
474.4990623
475.9967573
477.5125463
479.0430813
480.5845409
482.1335177
483.6859172
485.2384321
486.786922
488.3278431
489.8572293
491.3715259
492.8670593
494.3405695
495.7889773
497.2098136
498.6004718
499.9594293
501.2851213
502.5765291
503.8332248
505.055027
506.2418805
507.3941815
508.5126309
509.5980165
510.6512
511.6731487
512.6648799
454.674481
454.7857131
455.0242543
455.3767338
455.8358423
456.3951305
457.0485549
457.7901904
458.6147624
459.5169344
460.4915438
461.5335739
462.6382488
463.8009483
465.0172389
466.2826149
467.5927607
468.9437336
470.3314245
471.7519424
473.2016143
474.6763914
476.1730413
477.6873549
479.2161273
480.7553279
482.3014316
483.8504295
485.3986812
486.9422942
488.4773946
490.0003476
491.5073628
492.9951095
494.4602205
495.8999831
497.3118472
498.6935437
500.0435893
501.3604387
502.6433167
503.8917696
505.1056439
506.2848461
507.4298562
508.5413059
509.6199482
510.6666215
511.6822634
512.6678753
454.8575847
454.9688647
455.2074402
455.559913
456.0191726
456.5784129
457.2318859
457.9735269
458.7979853
459.7000053
460.6744001
461.716165
462.8205318
463.9828647
465.198705
466.4634764
467.7731022
469.1234918
470.5103493
471.9301055
473.3786851
474.8523577
476.3474697
477.8600822
479.3865607
480.9231297
482.4658689
484.0110065
485.5545504
487.0928878
488.621846
490.1381297
491.6377368
493.1176752
494.5744785
496.0057818
497.4089496
498.7820234
500.123543
501.4319678
502.706741
503.9473732
505.1537258
506.3256748
507.4637659
508.5685682
509.6408026
510.6812868
511.6909315
512.6707241
455.04072
455.152044
455.3905136
455.7431128
456.2024584
456.7616994
457.4150962
458.156841
458.9811789
459.8830299
460.85719
461.8986649
463.0026922
464.1646031
465.3798158
466.6440511
467.9530655
469.3026019
470.688628
472.1074346
473.5546941
475.0269892
476.520248
478.0308024
479.5545967
481.0881218
482.6270849
484.1679457
485.7064367
487.2390986
488.7617638
490.2711009
491.7633537
493.2354335
494.68413
496.1071661
497.5019
498.8666592
500.199943
501.5003549
502.7673849
504.0005516
505.1996821
506.3647472
507.4962263
508.5946713
509.6607734
510.6953319
511.6992334
512.6734524
494.7898281
496.2047365
497.5913354
498.9480587
500.2733834
501.5661188
502.8257147
504.0517164
505.2439135
506.4023659
507.5274882
508.6198164
509.6800142
510.7088647
511.7072326
512.6760814
)
;

boundaryField
{
    front_top
    {
        type            wedge;
    }
    front_middle
    {
        type            wedge;
    }
    front_bottom
    {
        type            wedge;
    }
    back_top
    {
        type            wedge;
    }
    back_middle
    {
        type            wedge;
    }
    back_bottom
    {
        type            wedge;
    }
    axis_top
    {
        type            symmetryPlane;
    }
    axis_middle
    {
        type            symmetryPlane;
    }
    axis_bottom
    {
        type            symmetryPlane;
    }
    wall_top
    {
        type            convectiveRadiativeHeatFlux;
        mode            convectiveRadiative;
        kappaMethod     fluidThermo;
        kappa           none;
        alphaAni        Anialpha;
        h               nonuniform 0();
        Ta              constant 513.15;
        emissivityNozzle 0.95;
        emissivityFilament 0.95;
        dNozzle         2;
        dFilament       1.65;
        refValue        nonuniform 0();
        refGradient     nonuniform 0();
        valueFraction   nonuniform 0();
        value           nonuniform 0();
    }
    wall_middle
    {
        type            fixedValue;
        value           uniform 513.15;
    }
    wall_bottom
    {
        type            fixedValue;
        value           uniform 513.15;
    }
    inlet
    {
        type            fixedValue;
        value           nonuniform 0();
    }
    outlet
    {
        type            zeroGradient;
    }
    procBoundary2to1
    {
        type            processor;
        value           nonuniform List<scalar> 
51
(
455.2237979
455.3350456
455.5736046
455.926324
456.3856041
456.944981
457.5982925
458.3399369
459.1643192
460.0660002
461.0399059
462.0810661
463.1846853
464.3460051
465.5607032
466.8243318
468.1326429
469.4811819
470.8662543
472.2837884
473.7296462
475.2002561
476.6914132
478.1995333
479.7203491
481.2503743
482.7853027
484.3214266
485.8547001
487.3813934
488.8976469
490.3999301
491.8848201
493.3490757
493.3490757
494.8921178
496.2990483
497.6777789
499.0267175
500.3443509
501.6296788
502.8821059
504.1011981
505.2867057
506.438773
507.5577521
508.6441641
509.6986476
510.7219715
511.7149803
512.6786277
)
;
    }
    procBoundary2to3
    {
        type            processor;
        value           nonuniform List<scalar> 
51
(
449.8660124
450.3146087
450.3146087
450.624453
451.0826282
451.6788858
452.4048158
453.2519703
454.2121991
455.2773809
456.4396788
457.6911765
459.024033
460.4301978
461.9019024
463.4313226
465.0108807
466.6328504
468.2899633
469.9747775
471.6804219
473.4002253
475.1277547
476.8567717
478.5816969
480.2972315
481.9983003
483.680404
485.3396489
486.9722846
488.575098
490.1455886
491.6810499
493.1799491
494.6404012
496.0617089
497.4427815
498.7833037
500.0832066
501.3423542
502.5612396
503.740439
504.8807055
505.9828691
507.0479349
508.0769998
509.0713624
510.0321864
510.960854
511.8585801
512.726731
)
;
    }
}


// ************************************************************************* //
