/*--------------------------------*- C++ -*----------------------------------*\
  =========                 |
  \\      /  F ield         | OpenFOAM: The Open Source CFD Toolbox
   \\    /   O peration     | Website:  https://openfoam.org
    \\  /    A nd           | Version:  7
     \\/     M anipulation  |
\*---------------------------------------------------------------------------*/
FoamFile
{
    version     2.0;
    format      ascii;
    class       volScalarField;
    location    "0.0009";
    object      thermo:alpha;
}
// * * * * * * * * * * * * * * * * * * * * * * * * * * * * * * * * * * * * * //

dimensions      [1 -1 -1 0 0 0 0];

internalField   nonuniform List<scalar> 
1167
(
0.0001197300962
0.0001197015791
0.0001196884394
0.0001196602636
0.0001196186364
0.0001195644699
0.0001194939859
0.0001194123688
0.0001193230687
0.0001192169376
0.0001191012353
0.0001189709399
0.0001188263972
0.000118674047
0.000118507977
0.0001183266248
0.0001181272126
0.0001179225794
0.0001177046056
0.0001174769907
0.0001172345516
0.0001169867113
0.0001167221461
0.0001164535141
0.000116181692
0.000115895463
0.0001156055421
0.0001153154449
0.0001150160337
0.0001147168212
0.0001144129241
0.0001141088836
0.0001138037728
0.0001135060848
0.0001132048341
0.0001129035851
0.000112604329
0.0001123141788
0.0001120262107
0.0001117427115
0.000111466176
0.0001111907385
0.0001109249263
0.0001106685625
0.000110413837
0.0001101662552
0.0001099196484
0.0001096809892
0.000109450949
0.0001092291682
0.0001090100898
0.0001196730851
0.0001196604747
0.000119633436
0.000119593497
0.0001195411884
0.0001194715833
0.0001193950343
0.0001193077179
0.0001192056511
0.0001190943022
0.0001189683783
0.000118829031
0.0001186819928
0.0001185224148
0.0001183484278
0.0001181551924
0.0001179565357
0.000117747201
0.0001175253971
0.0001172920083
0.0001170495075
0.0001167939081
0.0001165335306
0.0001162639657
0.0001159832225
0.0001157007051
0.0001154141817
0.0001151188154
0.0001148241261
0.0001145197901
0.0001142188938
0.0001139108742
0.0001136094242
0.0001133082525
0.0001130059161
0.0001127003521
0.0001124032768
0.0001121115149
0.0001118200587
0.0001115378704
0.000111254115
0.0001109797594
0.00011071502
0.0001104537356
0.0001101981933
0.0001099451102
0.0001096994259
0.0001094631136
0.0001092358581
0.0001090121676
0.0001196446202
0.000119632647
0.0001196069816
0.0001195690273
0.000119517125
0.0001194509429
0.0001193799004
0.0001192955386
0.0001191983729
0.0001190922964
0.0001189722829
0.0001188393009
0.0001186988116
0.0001185478984
0.0001183816784
0.0001181983628
0.0001180074564
0.0001178098739
0.0001175958715
0.0001173751838
0.0001171401067
0.0001168976009
0.0001166438989
0.0001163815279
0.0001161164079
0.0001158414476
0.0001155587036
0.0001152739845
0.0001149810514
0.0001146853435
0.0001143851492
0.0001140819024
0.000113777239
0.0001134782656
0.0001131726538
0.0001128649809
0.0001125591175
0.0001122608027
0.0001119606354
0.0001116660676
0.0001113738268
0.0001110851504
0.0001108058054
0.0001105329105
0.0001102624681
0.0001099970269
0.0001097375027
0.0001094885692
0.0001092500431
0.0001090166345
0.0001196161894
0.0001196049404
0.0001195808096
0.0001195451181
0.0001194940783
0.0001194327067
0.0001193666659
0.0001192861154
0.0001191946017
0.0001190946326
0.0001189819293
0.0001188564078
0.0001187236661
0.0001185834606
0.0001184260489
0.0001182557365
0.0001180743934
0.0001178882585
0.0001176878103
0.0001174800912
0.0001172587165
0.0001170311353
0.0001167898866
0.0001165444712
0.0001162891213
0.0001160239707
0.0001157574807
0.0001154832579
0.000115202956
0.0001149178819
0.0001146263614
0.0001143327264
0.0001140326944
0.0001137326109
0.0001134358457
0.0001131312621
0.0001128220288
0.0001125146424
0.0001122128474
0.0001119049412
0.0001116024538
0.0001112970784
0.0001109957163
0.0001107015949
0.0001104074124
0.0001101178167
0.0001098280679
0.0001095495327
0.0001092834653
0.0001090264969
0.0001195879996
0.000119577617
0.0001195553399
0.0001195201993
0.0001194730004
0.0001194178803
0.0001193568565
0.000119281567
0.0001191969428
0.0001191044443
0.0001190013554
0.0001188850447
0.0001187619346
0.0001186325984
0.0001184894012
0.0001183361774
0.0001181671515
0.0001179933465
0.0001178136855
0.0001176190178
0.0001174207213
0.0001172065292
0.0001169899907
0.0001167580717
0.0001165246002
0.0001162811454
0.000116027923
0.0001157744529
0.0001155125858
0.0001152463378
0.0001149730228
0.0001146958847
0.0001144127732
0.0001141265595
0.0001138350036
0.0001135463327
0.0001132512645
0.000112950983
0.0001126446109
0.0001123409663
0.0001120330271
0.0001117209263
0.0001114054622
0.0001110833019
0.000110761841
0.000110433925
0.0001100992032
0.0001097544585
0.0001094125219
0.0001090733192
0.000119564873
0.0001195546906
0.0001195317211
0.0001194962535
0.000119450033
0.0001193981102
0.0001193373765
0.0001192627728
0.0001191798794
0.000119089247
0.0001189869325
0.0001188728903
0.0001187521325
0.0001186252118
0.0001184840565
0.0001183333125
0.0001181671728
0.0001179962284
0.0001178197854
0.0001176280562
0.000117432932
0.0001172221108
0.0001170083402
0.0001167803365
0.0001165494516
0.0001163083495
0.000116060567
0.0001158094416
0.0001155494186
0.0001152867392
0.0001150146631
0.0001147405287
0.0001144578392
0.0001141737352
0.0001138815316
0.0001135915857
0.00011329664
0.0001129955489
0.0001126856951
0.0001123779206
0.0001120668448
0.0001117498443
0.000111430793
0.0001111047386
0.000110780894
0.0001104534076
0.0001101213109
0.0001097794829
0.0001094378908
0.0001090895841
0.0001195477638
0.0001195368679
0.0001195128135
0.0001194772446
0.0001194318747
0.0001193805962
0.0001193179435
0.0001192431286
0.0001191600099
0.000119069123
0.0001189646554
0.0001188502612
0.0001187291124
0.0001186017631
0.0001184581478
0.0001183048101
0.0001181380297
0.0001179664058
0.0001177870696
0.0001175945306
0.0001173967379
0.0001171845204
0.0001169687061
0.0001167383207
0.0001165054012
0.0001162641497
0.0001160109597
0.0001157572789
0.0001154957892
0.0001152285623
0.0001149546657
0.0001146753468
0.0001143903263
0.0001141002068
0.0001138050145
0.0001135118039
0.000113209507
0.0001129005901
0.0001125867942
0.0001122753779
0.0001119566807
0.0001116375529
0.000111313162
0.0001109885494
0.0001106686821
0.0001103440323
0.0001100191222
0.000109693279
0.0001093746164
0.000109060207
0.0001195292948
0.0001195180153
0.000119493836
0.0001194580851
0.0001194142687
0.0001193627322
0.0001192979771
0.0001192228045
0.000119139264
0.0001190479263
0.0001189409878
0.000118826016
0.0001187042511
0.0001185746805
0.0001184297738
0.0001182734016
0.0001181057606
0.000117933295
0.0001177506158
0.0001175571237
0.0001173558099
0.0001171425601
0.0001169230317
0.0001166915344
0.0001164546732
0.0001162151224
0.0001159577814
0.0001156996851
0.0001154367501
0.0001151646739
0.0001148890056
0.0001146042877
0.0001143170978
0.0001140209738
0.0001137232624
0.0001134260221
0.0001131187722
0.0001128034819
0.0001124879599
0.0001121748161
0.0001118531298
0.0001115359709
0.0001112115844
0.0001108933255
0.0001105809969
0.0001102657812
0.00010995236
0.000109643332
0.0001093436512
0.0001090493871
0.0001195104985
0.0001194991705
0.0001194748848
0.0001194392111
0.0001193967389
0.0001193446726
0.0001192781811
0.0001192027065
0.0001191188284
0.0001190258858
0.0001189178291
0.0001188023942
0.0001186801487
0.0001185480019
0.0001184025279
0.0001182434206
0.0001180751729
0.0001179020897
0.0001177164839
0.0001175223526
0.0001173179671
0.0001171040128
0.0001168812525
0.000116648952
0.000116408642
0.0001161667778
0.0001159097597
0.000115647797
0.0001153835612
0.000115107199
0.0001148299278
0.0001145404675
0.0001142514159
0.0001139501987
0.0001136506029
0.0001133482999
0.0001130392736
0.0001127201614
0.0001124047088
0.0001120893071
0.000111770207
0.0001114541903
0.0001111355256
0.0001108247809
0.0001105190453
0.0001102142523
0.0001099105307
0.0001096136348
0.0001093260702
0.0001090434155
0.0001194916984
0.0001194803341
0.0001194559688
0.0001194219323
0.0001193793228
0.0001193253487
0.0001192586461
0.000119182956
0.0001190988402
0.0001190037902
0.0001188954356
0.0001187796897
0.0001186571264
0.000118522696
0.0001183768691
0.0001182154008
0.0001180467899
0.000117873325
0.0001176852429
0.0001174907003
0.000117283703
0.000117069282
0.000116843748
0.0001166108614
0.0001163675571
0.0001161225747
0.0001158669389
0.0001156016929
0.000115335447
0.0001150562526
0.0001147759061
0.0001144841825
0.0001141912243
0.0001138884819
0.0001135878836
0.0001132819536
0.0001129698909
0.0001126513886
0.000112337536
0.0001120219358
0.0001117066853
0.0001113931802
0.0001110806282
0.000110776842
0.0001104769326
0.0001101801041
0.0001098833394
0.0001095945105
0.0001093147542
0.0001090395583
0.0001194728934
0.0001194615036
0.0001194374908
0.0001194047121
0.000119362007
0.0001193061915
0.0001192393523
0.0001191635197
0.0001190792574
0.0001189822494
0.0001188737209
0.0001187577982
0.0001186350593
0.0001184985846
0.0001183523972
0.0001181890289
0.0001180202029
0.0001178465141
0.0001176562695
0.0001174614465
0.0001172521709
0.0001170373854
0.0001168094089
0.0001165760306
0.0001163316864
0.0001160822752
0.0001158258834
0.00011555977
0.0001152903424
0.0001150101248
0.0001147263957
0.0001144336513
0.000114137351
0.0001138339288
0.0001135330228
0.0001132247014
0.0001129108925
0.0001125939297
0.0001122824265
0.0001119677436
0.0001116565988
0.0001113459681
0.0001110389036
0.0001107409001
0.0001104456992
0.0001101549579
0.000109863417
0.000109580535
0.0001093065157
0.0001090367585
0.0001194540833
0.0001194426765
0.0001194203654
0.0001193875374
0.0001193444418
0.0001192871672
0.0001192202608
0.0001191443344
0.0001190599966
0.0001189611447
0.0001188525324
0.0001187365263
0.0001186137061
0.0001184753485
0.0001183272838
0.0001181638061
0.0001179948616
0.0001178197725
0.0001176288177
0.0001174338004
0.0001172224441
0.0001170073734
0.0001167771708
0.0001165433785
0.0001162985981
0.0001160446374
0.0001157876234
0.0001155208112
0.0001152485665
0.0001149676152
0.0001146810013
0.0001143876943
0.0001140887371
0.0001137852451
0.0001134846279
0.0001131749095
0.0001128603237
0.0001125454831
0.0001122366906
0.0001119235272
0.0001116163127
0.0001113085065
0.000111006176
0.0001107129448
0.0001104215449
0.0001101354657
0.0001098480633
0.0001095697492
0.0001093001419
0.0001090345879
0.0001194358441
0.0001194254791
0.0001194032539
0.0001193703958
0.0001193255607
0.0001192682397
0.0001192013048
0.0001191253475
0.000119040962
0.0001189403406
0.0001188316996
0.0001187156655
0.0001185926256
0.0001184526984
0.0001183028362
0.0001181393071
0.0001179703005
0.0001177933802
0.0001176023172
0.0001174059112
0.0001171938543
0.00011697803
0.0001167462815
0.0001165115575
0.000116267028
0.0001160100723
0.0001157513265
0.0001154840217
0.0001152092643
0.0001149278646
0.0001146388262
0.0001143453421
0.000114044361
0.0001137412695
0.0001134405955
0.0001131310009
0.0001128163161
0.0001125038395
0.0001121978538
0.0001118863957
0.0001115828025
0.000111277604
0.0001109793031
0.0001106900663
0.0001104018097
0.000110119047
0.0001098355336
0.0001095609574
0.0001092949555
0.0001090328241
0.0001194187591
0.0001194083882
0.0001193861503
0.0001193532744
0.0001193067192
0.0001192493724
0.0001191824325
0.0001191064715
0.000119020398
0.0001189197251
0.0001188110829
0.0001186950574
0.0001185703015
0.000118430375
0.0001182787764
0.0001181152323
0.0001179462232
0.0001177675233
0.0001175763951
0.000117378169
0.0001171659823
0.0001169482478
0.0001167162851
0.0001164795336
0.0001162365229
0.0001159774474
0.0001157165009
0.0001154488848
0.0001151719336
0.0001148903504
0.0001145993457
0.0001143060089
0.0001140035719
0.0001137012263
0.0001133998999
0.0001130918783
0.0001127775517
0.0001124675166
0.0001121629929
0.0001118545762
0.0001115542806
0.0001112514434
0.0001109566299
0.0001106708056
0.0001103852136
0.0001101052441
0.0001098249974
0.0001095535594
0.0001092905873
0.0001090313374
0.00011940167
0.0001193912951
0.0001193690491
0.0001193349805
0.0001192878969
0.0001192305519
0.0001191636029
0.0001190876517
0.0001189998716
0.0001188992146
0.0001187905907
0.0001186745868
0.0001185481352
0.0001184082302
0.0001182549331
0.0001180914053
0.0001179224189
0.0001177419887
0.0001175508435
0.0001173508505
0.0001171385815
0.0001169190236
0.0001166869137
0.0001164482554
0.0001162068166
0.0001159457894
0.0001156828629
0.0001154151017
0.0001151362818
0.0001148547292
0.0001145621514
0.0001142692439
0.0001139657812
0.0001136644668
0.0001133628883
0.0001130566217
0.0001127429203
0.0001124353225
0.0001121322222
0.0001118267239
0.0001115293504
0.0001112287107
0.0001109369636
0.0001106541144
0.0001103708413
0.0001100932876
0.0001098158722
0.0001095471548
0.000109286808
0.0001090300517
0.000119384577
0.0001193741992
0.0001193519472
0.0001193161751
0.0001192690816
0.0001192117481
0.0001191447918
0.000119068857
0.0001189793807
0.0001188787486
0.0001187701528
0.0001186541814
0.0001185260526
0.0001183861838
0.0001182312136
0.0001180677415
0.0001178987806
0.0001177166589
0.0001175255402
0.000117323821
0.0001171115361
0.0001168902081
0.0001166580349
0.000116417564
0.0001161746054
0.0001159149344
0.000115650241
0.0001153824889
0.000115102066
0.0001148207664
0.0001145269428
0.0001142341255
0.0001139305642
0.0001136305139
0.000113328949
0.0001130234648
0.0001127116232
0.0001124064099
0.0001121047298
0.0001118019422
0.0001115064179
0.0001112085871
0.0001109195764
0.000110639367
0.0001103581543
0.0001100827256
0.0001098078101
0.000109541495
0.0001092834673
0.000109028915
0.0001193674807
0.0001193571004
0.0001193335311
0.0001192973691
0.000119250268
0.0001191929485
0.0001191260067
0.0001190500734
0.0001189589064
0.0001188583046
0.0001187497431
0.0001186338117
0.0001185040181
0.0001183641964
0.0001182075893
0.0001180441708
0.0001178752538
0.000117691482
0.0001175004067
0.0001172970071
0.0001170847526
0.000116861718
0.0001166295543
0.0001163873662
0.0001161427276
0.0001158847842
0.0001156185042
0.0001153507832
0.000115069133
0.0001147870503
0.0001144934851
0.0001141999804
0.0001138975611
0.0001135989241
0.0001132975739
0.0001129927046
0.0001126830258
0.0001123801402
0.0001120798224
0.0001117795556
0.0001114857436
0.0001111904681
0.0001109039315
0.0001106261005
0.0001103467413
0.0001100732238
0.0001098005572
0.0001095364039
0.0001092804628
0.0001090278928
0.000119350382
0.0001193391981
0.0001193147306
0.0001192785622
0.0001192314699
0.0001191741507
0.0001191072273
0.0001190304629
0.0001189384415
0.0001188378737
0.0001187293511
0.0001186134652
0.0001184820159
0.0001183412929
0.0001181840253
0.0001180206679
0.0001178518106
0.000117666431
0.0001174754075
0.0001172703775
0.0001170581833
0.0001168335064
0.0001166014138
0.0001163576669
0.0001161114127
0.000115854523
0.0001155875749
0.0001153185561
0.00011503736
0.0001147543269
0.0001144615807
0.0001141676193
0.0001138664721
0.0001135693414
0.000113268354
0.0001129642002
0.0001126566405
0.0001123559901
0.00011205699
0.0001117590771
0.0001114668583
0.0001111739306
0.0001108896579
0.0001106139979
0.000110336329
0.0001100645539
0.0001097939386
0.0001095317574
0.0001092777205
0.0001090269597
0.0001193318147
0.000119320401
0.0001192959288
0.0001192597545
0.0001192126774
0.0001191553544
0.000119088451
0.0001190099966
0.0001189179957
0.000118817453
0.0001187089729
0.0001185929699
0.0001184600548
0.0001183177034
0.0001181605049
0.0001179972201
0.0001178276955
0.000117641472
0.0001174505231
0.000117243918
0.000117031804
0.000116805572
0.0001165735835
0.0001163299951
0.0001160806202
0.0001158240069
0.000115557391
0.0001152872468
0.0001150066417
0.0001147228523
0.0001144310604
0.0001141368222
0.0001138370535
0.0001135414718
0.0001132409629
0.0001129375739
0.0001126320771
0.0001123335688
0.000112035836
0.0001117401433
0.0001114494023
0.0001111586518
0.0001108764724
0.0001106024089
0.0001103267078
0.0001100565415
0.0001097878213
0.0001095274628
0.000109275186
0.0001090260973
0.0001193130191
0.0001193016031
0.0001192771265
0.0001192409519
0.0001191938858
0.0001191365669
0.0001190696777
0.0001189895353
0.0001188975673
0.000118797063
0.0001186886265
0.0001185709751
0.000118438123
0.0001182941441
0.0001181370226
0.0001179738207
0.0001178027242
0.0001176165947
0.0001174257255
0.0001172175983
0.000117005601
0.0001167778738
0.0001165460453
0.0001163026832
0.0001160503185
0.0001157940782
0.0001155278999
0.0001152567824
0.0001149768995
0.0001146925013
0.0001144017906
0.0001141073973
0.000113809081
0.0001135150685
0.000113215121
0.0001129125203
0.0001126090374
0.0001123125702
0.0001120160537
0.0001117224607
0.0001114331033
0.0001111443886
0.0001108641631
0.0001105915675
0.0001103177224
0.0001100490572
0.0001097821062
0.0001095234503
0.0001092728177
0.0001090252915
0.0001192942234
0.0001192828053
0.0001192583246
0.000119222166
0.0001191750958
0.0001191177956
0.0001190509081
0.0001189690795
0.000118877146
0.0001187766825
0.0001186682953
0.0001185489967
0.0001184162117
0.0001182706126
0.0001181135755
0.0001179504839
0.0001177778137
0.0001175917949
0.0001173994029
0.000117191411
0.0001169790959
0.0001167503999
0.0001165185772
0.0001162757137
0.0001160211005
0.000115764702
0.0001154990795
0.0001152270963
0.0001149480443
0.0001146631608
0.000114373609
0.0001140791765
0.0001137823514
0.0001134899226
0.000113190582
0.0001128887888
0.0001125872662
0.0001122927488
0.0001119973995
0.0001117057965
0.000111417747
0.0001111309505
0.0001108525639
0.000110581349
0.0001103092511
0.0001100419995
0.0001097767162
0.0001095196656
0.0001092705839
0.0001090245314
0.0001192754285
0.0001192640083
0.0001192395305
0.0001192033818
0.0001191563083
0.0001190990278
0.0001190313866
0.0001189486297
0.0001188567325
0.0001187563117
0.0001186479761
0.0001185270346
0.0001183943204
0.0001182471081
0.0001180901691
0.0001179271966
0.0001177529617
0.0001175670699
0.0001173731822
0.0001171653533
0.0001169516125
0.0001167231437
0.0001164900054
0.0001162490717
0.0001159933003
0.000115735846
0.0001154708623
0.0001151981267
0.0001149199839
0.0001146347287
0.0001143463939
0.0001140520131
0.0001137567015
0.0001134658579
0.0001131671527
0.0001128661739
0.00011256655
0.0001122739077
0.0001119796796
0.0001116899721
0.0001114031653
0.0001111181885
0.0001108415464
0.0001105716393
0.0001103011993
0.0001100352898
0.000109771591
0.0001095160666
0.0001092684595
0.0001090238085
0.0001192566351
0.0001192452134
0.0001192207527
0.0001191846004
0.0001191375302
0.0001190802644
0.0001190109348
0.0001189281876
0.0001188363275
0.0001187359513
0.0001186276696
0.000118505089
0.0001183724495
0.0001182236326
0.0001180668143
0.000117903952
0.0001177281681
0.0001175424403
0.0001173470626
0.0001171394241
0.0001169243006
0.0001166961009
0.0001164617106
0.0001162227456
0.0001159658976
0.0001157074797
0.0001154432041
0.0001151698196
0.0001148926463
0.0001146071297
0.0001143200381
0.000114025803
0.0001137319918
0.0001134419615
0.0001131446716
0.0001128445057
0.0001125467223
0.0001122558872
0.0001119627492
0.0001116748442
0.000111389224
0.000111105984
0.0001108310166
0.0001105623477
0.000110293492
0.0001100288656
0.0001097666831
0.0001095126198
0.000109266425
0.0001090231162
0.0001131230041
0.0001128236554
0.0001125276467
0.0001122385578
0.0001119464762
0.0001116602979
0.0001113758158
0.0001110942425
0.0001108208827
0.0001105534023
0.0001102860695
0.0001100226774
0.0001097619548
0.0001095092988
0.0001092644646
0.0001090224491
)
;

boundaryField
{
    front_top
    {
        type            wedge;
    }
    front_middle
    {
        type            wedge;
    }
    front_bottom
    {
        type            wedge;
    }
    back_top
    {
        type            wedge;
    }
    back_middle
    {
        type            wedge;
    }
    back_bottom
    {
        type            wedge;
    }
    axis_top
    {
        type            symmetryPlane;
    }
    axis_middle
    {
        type            symmetryPlane;
    }
    axis_bottom
    {
        type            symmetryPlane;
    }
    wall_top
    {
        type            calculated;
        value           nonuniform 0();
    }
    wall_middle
    {
        type            calculated;
        value           uniform 0.0001089022317;
    }
    wall_bottom
    {
        type            calculated;
        value           uniform 0.0001089022317;
    }
    inlet
    {
        type            calculated;
        value           nonuniform 0();
    }
    outlet
    {
        type            calculated;
        value           nonuniform 0();
    }
    procBoundary2to1
    {
        type            processor;
        value           nonuniform List<scalar> 
51
(
0.0001192378525
0.0001192264416
0.000119201978
0.0001191658227
0.0001191187713
0.0001190615063
0.0001189904899
0.0001189077751
0.0001188159337
0.0001187156022
0.0001186073765
0.000118483161
0.0001183502812
0.0001182002065
0.0001180434943
0.0001178807511
0.0001177034339
0.0001175178896
0.000117321045
0.0001171136438
0.0001168971593
0.0001166692759
0.0001164336867
0.0001161958191
0.0001159388736
0.0001156795907
0.0001154160663
0.0001151421422
0.0001148659663
0.0001145802752
0.0001142944471
0.000114000414
0.0001137081026
0.0001134186194
0.0001134186194
0.0001131020383
0.0001128035041
0.0001125092114
0.0001122218137
0.0001119307528
0.0001116462404
0.0001113628543
0.0001110828879
0.0001108110791
0.0001105447455
0.0001102788844
0.0001100166856
0.0001097573758
0.0001095060824
0.0001092625659
0.0001090218029
)
;
    }
    procBoundary2to3
    {
        type            processor;
        value           nonuniform List<scalar> 
51
(
0.0001197613281
0.000119716533
0.000119716533
0.000119687453
0.0001196444748
0.0001195885857
0.0001195182138
0.0001194319809
0.0001193416966
0.0001192323561
0.0001191132335
0.0001189801259
0.000118831555
0.0001186751133
0.0001185046998
0.0001183183884
0.0001181143958
0.0001179053936
0.0001176817704
0.0001174500633
0.0001172018732
0.0001169482697
0.0001166804997
0.0001164066198
0.00011612988
0.0001158435125
0.0001155511132
0.0001152577774
0.0001149586732
0.0001146574982
0.0001143552008
0.0001140505427
0.000113748181
0.0001134533593
0.0001131536366
0.0001128542206
0.0001125593329
0.0001122736351
0.000111988619
0.0001117097976
0.0001114366189
0.0001111656885
0.000110904116
0.0001106516692
0.0001103999631
0.000110155652
0.0001099115879
0.0001096754318
0.0001094474711
0.0001092273778
0.0001090095973
)
;
    }
}


// ************************************************************************* //
