/*--------------------------------*- C++ -*----------------------------------*\
  =========                 |
  \\      /  F ield         | OpenFOAM: The Open Source CFD Toolbox
   \\    /   O peration     | Website:  https://openfoam.org
    \\  /    A nd           | Version:  7
     \\/     M anipulation  |
\*---------------------------------------------------------------------------*/
FoamFile
{
    version     2.0;
    format      ascii;
    class       volScalarField;
    location    "0.0009";
    object      thermo:mu;
}
// * * * * * * * * * * * * * * * * * * * * * * * * * * * * * * * * * * * * * //

dimensions      [1 -1 -1 0 0 0 0];

internalField   nonuniform List<scalar> 
1167
(
94363.84832
92021.7801
90965.22843
88746.45648
85581.65511
81656.51477
77159.14327
72271.00895
67161.32495
61979.16581
56849.12226
51871.21912
47120.75747
42651.36398
38495.73409
34670.63631
31179.54133
28015.84669
25165.70951
22611.03371
20329.57541
18298.53728
16494.98978
14895.84066
13479.65247
12226.3831
11117.46824
10136.04437
9267.068371
8497.060207
7813.943107
7207.250343
6667.588103
6186.831236
5757.816103
5374.27072
5030.695845
4722.380275
4445.089748
4195.200807
3969.56367
3765.361006
3580.156374
3411.825015
3258.496277
3118.524707
2990.44538
2872.986897
2765.006087
2665.514011
2573.629994
89748.28595
88762.84961
86691.67264
83733.47463
80054.10561
75827.60694
71218.24088
66381.62275
61455.8054
56557.68136
51782.32716
47202.67802
42871.92429
38824.5254
35079.29506
31643.76449
28513.9092
25680.52242
23127.90111
20837.55714
18789.55429
16962.68887
15336.25923
13890.49507
12606.24765
11465.98383
10453.84083
9555.036946
8756.456196
8046.45583
7414.477424
6851.35773
6348.887496
5899.933973
5498.146686
5137.998241
4814.586826
4523.748864
4261.668094
4025.094732
3811.206396
3617.447788
3441.610658
3281.755943
3136.167917
3003.315999
2881.859732
2770.59196
2668.45115
2574.472935
87541.54932
86632.07489
84719.0347
81978.63753
78562.89759
74624.25062
70313.59075
65770.44913
61121.02319
56473.68762
51917.89195
47523.68756
43343.1661
39412.86943
35753.64537
32375.93507
29280.31631
26460.5599
23905.35081
21599.53621
19525.7836
17666.32536
16002.20504
14515.42604
13188.67604
12005.39247
10950.53781
10010.1303
9171.411646
8423.098371
7754.825254
7157.482588
6622.971619
6144.051074
5714.430108
5328.407278
4981.103094
4668.154785
4385.735874
4130.561339
3899.648165
3690.444139
3500.725527
3328.507748
3172.040857
3029.767054
2900.289507
2782.325133
2674.691922
2576.286167
85399.70339
84568.99248
82818.24586
80304.8699
77164.69454
73529.19347
69533.36228
65302.04744
60948.39071
56571.52991
52254.57792
48064.05019
44050.62626
40251.32537
36690.23038
33379.78718
30324.67887
27522.73356
24966.04568
22643.73164
20541.43057
18644.25927
16936.07029
15400.79681
14022.96841
12787.35239
11680.06334
10687.84254
9798.696017
9001.6278
8286.55797
7644.687082
7067.765611
6548.72901
6081.085166
5659.197865
5277.926982
4932.887867
4620.071413
4336.070725
4077.817435
3842.667165
3628.387603
3432.971243
3254.769554
3092.404348
2944.699624
2810.669906
2689.466186
2580.29516
83335.48833
82589.76212
81015.57484
78751.61629
75911.04367
72609.49737
68961.50908
65077.34233
61055.49114
56984.60259
52940.31796
48984.66061
45166.3129
41522.00464
38077.46498
34848.99566
31844.63929
29065.56543
26508.88642
24167.33756
22030.5283
20087.10151
18323.63072
16727.20797
15283.81513
13980.80527
12805.08114
11744.97365
10789.06428
9927.196735
9149.623477
8447.781288
7813.62056
7240.077388
6720.562402
6249.354403
5821.109407
5431.228627
5075.379781
4749.878251
4451.314603
4176.704972
3923.430738
3689.148639
3471.946722
3270.18204
3082.650901
2908.542206
2747.449917
2599.431272
81684.94104
80970.21176
79463.54969
77295.42225
74571.71351
71403.7462
67897.60112
64158.27802
60279.82042
56346.27157
52430.20137
48591.44539
44877.4441
41324.41064
37958.10076
34795.39149
31844.99854
29109.27759
26586.44025
24270.55205
22152.31597
20221.50547
18465.81673
16873.05461
15430.28145
14125.23191
12945.65348
11880.1382
10917.79945
10048.66759
9263.298338
8553.274157
7910.681064
7328.565397
6800.416727
6320.555085
5883.768915
5485.442564
5121.443753
4788.128178
4482.352267
4201.2779
3942.599413
3704.206001
3484.383598
3281.563899
3094.239452
2920.773896
2759.025018
2606.118824
80488.1289
79783.9732
78299.11513
76161.57046
73477.22861
70354.891
66899.82936
63213.66536
59390.92802
55513.71394
51653.45169
47869.07796
44207.43911
40704.35582
37385.61462
34267.29929
31358.06441
28660.61559
26173.56936
23890.27533
21802.292
19899.03936
18168.68064
16599.06777
15177.33209
13891.45841
12729.19329
11679.29377
10730.95485
9874.30443
9100.035569
8399.769819
7765.804065
7191.200866
6669.684801
6195.669881
5764.148755
5370.695718
5011.392015
4682.887533
4382.186785
4106.818363
3854.52494
3623.469171
3411.901312
3218.278381
3041.109681
2878.897807
2730.263951
2594.055106
79313.01418
78617.49424
77150.14868
75038.13236
72387.48509
69303.38457
65892.29309
62253.2564
58478.99036
54652.15236
50842.80139
47108.91446
43496.86219
40042.40113
36770.14868
33696.14423
30828.99869
28171.91472
25722.32473
23474.1771
21419.17162
19546.18655
17844.09568
16300.10696
14902.06129
13637.46785
12494.71017
11462.18019
10529.62023
9686.934946
8925.258282
8236.135371
7612.212552
7046.594285
6533.302776
6066.904408
5642.656895
5256.306206
4904.229567
4583.198877
4290.472581
4023.55651
3780.367017
3558.875131
3357.294085
3173.903332
3006.992911
2854.966386
2716.321011
2589.628904
78157.90444
77471.13606
76022.15898
73936.909
71320.97541
68276.6476
64910.64578
61320.10476
57596.5123
53821.20126
50063.83828
46381.74614
42820.61614
39415.28015
36190.23122
33161.27479
30337.09408
27720.22674
25308.04863
23094.98794
21071.93527
19228.48978
17553.14295
16033.50072
14657.35271
13412.51694
12287.33471
11270.64999
10352.05329
9521.964253
8771.395906
8092.388615
7477.5133
6920.342281
6414.870862
5956.08938
5539.26283
5160.473794
4816.086299
4503.11143
4218.685195
3960.405009
3725.960548
3513.2354
3320.262822
3145.084689
2985.852688
2840.851272
2708.443011
2587.189991
77021.95073
76344.54048
74915.21966
72859.52023
70279.33228
67278.02811
63958.49108
60418.83139
56748.24523
53027.00146
49323.75402
45695.07379
42186.06519
38830.96162
35653.811
32670.32316
29888.82066
27311.34293
24935.68764
22756.03404
20763.21667
18947.42626
17296.69814
15799.35494
14442.9288
13215.84287
12106.2684
11103.63674
10197.46027
9378.509767
8637.981765
7968.081039
7361.696227
6812.442148
6314.693981
5863.400614
5454.151338
5082.944717
4746.346267
4441.191222
4164.667127
3914.176912
3687.275828
3481.734117
3295.371032
3126.160363
2972.206571
2831.806121
2703.386963
2585.6161
75904.73776
75237.17093
73828.81965
71803.79336
69261.08125
66304.66322
63033.92938
59546.83476
55931.19176
52265.79351
48618.2009
45044.14975
41588.07927
38283.5821
35154.2955
32215.97243
29475.91182
26936.56631
24596.06994
22447.93603
20483.79026
18693.53937
17065.75082
15588.76251
14250.5299
13039.49573
11944.28871
10954.30522
10059.58634
9250.828329
8519.709963
7858.409459
7260.206465
6718.731022
6228.595122
5784.797873
5383.005324
5019.236626
4690.032355
4392.123513
4122.658817
3878.848192
3658.196369
3458.33917
3277.054934
3112.312568
2962.256207
2825.218182
2699.713139
2584.474388
74805.90995
74148.51022
72762.71763
70768.43595
68264.6209
65354.1383
62134.24762
58700.36374
55140.84609
51532.26304
47941.01272
44421.94345
41018.80286
37764.55494
34682.906
31788.29831
29088.53627
26586.27608
24279.27134
22161.25062
20224.39227
18458.29288
16852.22648
15394.33665
14073.26051
12877.2979
11795.63832
10817.65667
9933.852133
9134.982848
8412.955843
7760.220255
7170.050546
6636.396176
6153.803822
5717.458582
5322.905934
4966.262328
4643.903775
4352.569371
4089.239029
3851.088119
3635.580217
3440.273497
3262.974246
3101.686799
2954.615089
2820.14648
2696.874968
2583.589708
73725.52751
73079.18465
71715.21562
69752.23799
67288.89382
64424.05776
61255.62869
57876.34211
54372.46937
50820.8435
47285.84858
43821.44285
40470.76192
37266.48443
34231.07391
31379.22411
28718.74837
26252.62172
23977.97186
21889.26073
19978.54281
18235.79099
16650.57657
15211.14475
13906.54248
12725.23828
11656.63119
10690.46461
9817.259034
9028.209376
8315.192948
7671.021308
7088.914749
6563.055326
6087.955915
5658.851256
5271.256194
4921.26089
4605.159744
4319.682659
4061.687795
3828.368153
3617.135563
3425.573138
3251.523789
3093.050336
2948.397076
2816.020553
2694.568183
2582.871055
72663.63975
72027.67567
70685.57182
68754.04194
66331.25738
63512.1506
60395.14957
57070.38666
53622.67067
50127.08782
46647.6926
43237.45783
39938.67562
36783.06595
33793.0911
30983.20387
28361.56204
25930.47423
23687.47524
21627.4849
19742.23508
18022.44392
16457.46565
15036.22286
13747.6561
12580.82622
11525.07466
10570.6345
9708.012538
8928.797887
8224.896512
7589.270482
7015.299446
6497.111589
6029.387503
5607.235767
5226.255813
4882.407314
4572.024184
4291.737721
4038.41319
3809.260265
3601.660944
3413.25599
3241.932086
3085.812239
2943.180592
2812.554364
2692.62719
2582.265525
71619.13497
70993.48335
69673.12079
67773.65412
65390.30647
62617.3531
59550.53788
56279.74638
52887.57409
49447.75154
46023.27913
42666.30638
39418.38393
36310.71511
33365.48281
30596.99069
28013.51737
25616.8686
23405.15339
21373.28544
19513.11211
17815.93853
16270.92601
14867.65664
13594.98292
12442.53973
11399.66752
10456.91738
9605.021187
8835.602434
8140.892026
7513.792399
6947.906396
6437.269551
5976.703912
5561.201957
5186.441404
4848.276743
4543.094097
4267.454719
4018.259848
3792.749239
3588.303034
3402.625157
3233.653185
3079.558897
2938.671674
2809.557781
2690.949237
2581.741996
70591.7155
69976.24498
68677.35469
66809.87581
64465.10439
61737.88879
58720.38236
55502.80389
52165.38033
48780.51303
45410.16809
42105.68387
38907.88327
35847.46534
32946.33939
30218.97064
27672.82551
25310.15334
23129.45033
21125.21559
19290.0154
17615.03812
16089.935
14704.41134
13447.70298
12309.48456
11279.58593
10348.51027
9507.393622
8747.818781
8062.309825
7443.724904
6885.795888
6382.579236
5928.87582
5519.731474
5150.771957
4817.868313
4517.431572
4245.987241
4000.500447
3778.204976
3576.542852
3393.265524
3226.366254
3074.047631
2934.695006
2806.912914
2689.467083
2581.27923
69581.10655
68975.65986
67698.80441
65861.89133
63555.09608
60872.88879
57904.72303
54738.7109
51455.17142
48124.40251
44807.35413
41554.56607
38406.14613
35392.29723
32534.96804
29847.84569
27338.53907
25009.53549
22859.35392
20882.45223
19072.0241
17419.01824
15913.75505
14545.84908
13305.08481
12181.08847
11164.19493
10244.84821
9414.534906
8664.871549
7988.468812
7378.350618
6828.18903
6332.192207
5885.066991
5481.963319
5118.435694
4790.437236
4494.33182
4226.70591
3984.570672
3765.166792
3566.000674
3384.87223
3219.828008
3069.09971
2931.12303
2804.536342
2688.134924
2580.863167
68587.04849
67992.00874
66736.50542
64929.38219
62660.65665
60021.96939
57102.40581
53987.44006
50756.47144
47478.92553
44214.32669
41012.43072
37912.64398
34944.94878
32130.60055
29483.07577
27010.12497
24714.56038
22594.35835
20644.58912
18858.62736
17227.43591
15741.90406
14391.56595
13166.71859
12057.01105
11053.08051
10145.56853
9325.964097
8586.194875
7918.803483
7317.021407
6774.447629
6285.435943
5844.61452
5447.240189
5088.816003
4765.384455
4473.280851
4209.160003
3970.08582
3753.313902
3556.415094
3377.237118
3213.876918
3064.5934
2927.867974
2802.369466
2686.919704
2580.483451
67610.2899
67025.0666
65789.92955
64012.08493
61781.01593
59184.85906
56313.06489
53248.70301
50069.39422
46843.79315
43630.78973
40479.03234
37427.40651
34505.02164
31732.81436
29124.33691
26687.40536
24424.70688
22334.14561
20411.38522
18649.52502
17040.17196
15574.09144
14241.40544
13032.31333
11936.94653
10945.90254
10050.20506
9241.270936
8511.319191
7852.834745
7259.218525
6724.0569
6241.763355
5806.995083
5415.042064
5061.425549
4742.265428
4453.88271
4193.015244
3956.753487
3742.402996
3547.587866
3370.20856
3208.389766
3060.435947
2924.863375
2800.368486
2685.797133
2580.132565
66649.69159
66073.9554
64858.82874
63109.98998
60915.67871
58361.62622
55536.46888
52521.83634
49393.65332
46219.44074
43057.07803
39954.61069
36950.01833
34072.08404
31341.39208
28771.40958
26370.1874
24139.75461
22078.50232
20182.47296
18444.50914
16856.84913
15410.1084
14095.00492
12901.62712
11820.56314
10842.36977
9958.432198
9160.136499
8439.849561
7790.181843
7204.49804
6676.556793
6200.72201
5771.767901
5384.953324
5035.894388
4720.735028
4435.833641
4178.004453
3944.353299
3732.251761
3539.370964
3363.662153
3203.275421
3056.558604
2922.059711
2798.500462
2684.748733
2579.804742
65704.8427
65138.42661
63942.9606
62223.358
60064.41744
57552.32325
54772.40657
51806.6401
48728.7063
45605.01402
42492.53126
39438.45868
36480.14199
33645.96572
30956.1661
28424.38971
26058.12355
23859.55333
21827.51662
19957.69537
18243.48114
16677.29725
15249.80721
13952.17741
12774.49547
11707.6293
10742.30888
9869.956913
9082.227742
8371.435602
7730.418568
7152.477243
6631.540308
6161.934086
5738.552803
5356.636538
5011.910469
4700.518993
4418.894116
4163.917219
3932.71306
3722.718017
3531.649066
3357.505921
3198.462703
3052.907742
2919.418463
2796.739912
2683.760305
2579.495572
64775.49351
64218.23486
63042.39563
61351.19679
59227.0133
56756.13867
54021.06039
51102.92317
48074.37408
45000.34217
41936.90037
38930.42089
36017.63069
33226.52509
30577.10552
28082.96933
25751.08859
23583.98051
21580.81903
19736.94034
18046.3995
16501.38701
15093.16013
13812.75633
12650.75508
11597.93454
10645.39885
9784.51351
9007.217283
8305.76698
7673.221645
7102.827341
6588.681757
6125.084565
5707.052638
5329.817539
4989.215561
4681.398878
4402.874815
4150.592619
3921.698178
3713.691044
3524.333173
3351.668795
3193.896405
3049.441752
2916.909692
2795.066961
2682.820724
2579.201587
63861.39735
63313.14855
62157.24402
60493.28214
58403.51088
55972.87234
53282.30951
50410.53176
47430.4864
44405.26523
41390.03513
38430.35756
35562.3545
32813.6735
30204.27059
27746.94405
25448.98172
23313.1674
21338.31593
19520.11152
17853.02066
16329.00632
14939.89597
13676.59857
12530.16599
11491.28313
10551.41088
9701.869142
8934.844631
8242.606751
7618.309507
7055.308354
6547.706016
6089.933529
5677.021046
5304.271631
4967.608997
4663.198691
4387.63417
4137.902368
3911.201691
3705.083023
3517.358178
3346.094493
3189.532812
3046.127696
2914.509723
2793.465923
2681.921232
2578.920063
5648.254933
5279.828138
4946.927695
4645.776332
4373.045019
4125.743907
3901.138397
3696.824188
3510.661079
3340.738428
3185.337317
3042.9395
2912.199806
2791.924357
2681.054873
2578.64883
)
;

boundaryField
{
    front_top
    {
        type            wedge;
    }
    front_middle
    {
        type            wedge;
    }
    front_bottom
    {
        type            wedge;
    }
    back_top
    {
        type            wedge;
    }
    back_middle
    {
        type            wedge;
    }
    back_bottom
    {
        type            wedge;
    }
    axis_top
    {
        type            symmetryPlane;
    }
    axis_middle
    {
        type            symmetryPlane;
    }
    axis_bottom
    {
        type            symmetryPlane;
    }
    wall_top
    {
        type            calculated;
        value           nonuniform 0();
    }
    wall_middle
    {
        type            calculated;
        value           uniform 2530.329233;
    }
    wall_bottom
    {
        type            calculated;
        value           uniform 2530.329233;
    }
    inlet
    {
        type            calculated;
        value           nonuniform 0();
    }
    outlet
    {
        type            calculated;
        value           nonuniform 0();
    }
    procBoundary2to1
    {
        type            processor;
        value           nonuniform List<scalar> 
51
(
62962.7062
62423.8774
61286.58747
59649.3922
57594.06445
55202.32378
52555.48851
49729.98054
46796.93453
43819.63394
40851.79811
37938.14351
35114.29048
32407.64111
29837.27309
27416.22532
25151.72055
23046.83927
21099.92955
19307.29427
17663.25716
16160.10266
14789.90228
13543.61067
12412.56986
11387.55446
10460.14402
9621.861637
8864.876984
8181.697144
7565.437461
7009.638184
6508.37929
6056.24441
6056.24441
5620.585976
5256.331998
4927.038501
4629.016436
4359.003744
4114.034653
3891.439874
3688.858623
3504.196878
3335.564946
3181.282259
3039.856337
2909.964965
2790.432338
2680.216098
2578.386161
)
;
    }
    procBoundary2to3
    {
        type            processor;
        value           nonuniform List<scalar> 
51
(
96778.72162
93241.45556
93241.45556
90886.47773
87530.44094
83377.81021
78629.67287
73483.85698
68121.7436
62702.49715
57357.60124
52191.44311
47281.33511
42680.8845
38421.55547
34517.70481
30969.54847
27767.64747
24894.6953
22329.37082
20047.14315
18022.59938
16230.52206
14646.71187
13248.11085
12013.52697
10923.76574
9961.41379
9110.833868
8358.307735
7691.67551
7100.151524
6574.517968
6106.464955
5688.974365
5315.706929
4981.337933
4681.122928
4410.947575
4167.294364
3947.024032
3747.423278
3566.124754
3401.071108
3250.454827
3112.693792
2986.384787
2870.318839
2763.411582
2664.728631
2573.430233
)
;
    }
}


// ************************************************************************* //
