/*--------------------------------*- C++ -*----------------------------------*\
  =========                 |
  \\      /  F ield         | OpenFOAM: The Open Source CFD Toolbox
   \\    /   O peration     | Website:  https://openfoam.org
    \\  /    A nd           | Version:  7
     \\/     M anipulation  |
\*---------------------------------------------------------------------------*/
FoamFile
{
    version     2.0;
    format      ascii;
    class       volVectorField;
    location    "0.0009";
    object      U;
}
// * * * * * * * * * * * * * * * * * * * * * * * * * * * * * * * * * * * * * //

dimensions      [0 1 -1 0 0 0 0];

internalField   nonuniform List<vector> 
1167
(
(-0.0002749086355 5.347871707e-19 -0.04032306655)
(-0.0002468975813 -1.174220151e-17 -0.04230093594)
(-0.0006456763115 -1.230210615e-17 -0.04227368943)
(-0.001021616372 -1.146236496e-17 -0.04221140164)
(-0.001408315301 -1.121747434e-17 -0.04211882571)
(-0.001793422081 -1.170356645e-17 -0.04199728702)
(-0.002173524554 -1.5787066e-17 -0.04184776928)
(-0.002548944308 -1.754056767e-17 -0.0416709107)
(-0.002920037543 -1.729119045e-17 -0.04146713145)
(-0.003286926544 -1.491288438e-17 -0.04123666843)
(-0.003649669242 -1.282432989e-17 -0.04097958103)
(-0.004008270834 -1.088571157e-17 -0.04069576105)
(-0.004362656932 -1.096199104e-17 -0.04038494549)
(-0.004712657035 -1.190871541e-17 -0.04004672981)
(-0.005057995464 -1.186130055e-17 -0.03968058295)
(-0.005398282889 -1.206311003e-17 -0.0392858633)
(-0.005733007607 -1.225398612e-17 -0.03886183801)
(-0.00606152699 -1.365489919e-17 -0.03840770206)
(-0.006383061855 -1.563563381e-17 -0.0379226027)
(-0.006696687733 -1.638040971e-17 -0.03740566157)
(-0.007001330693 -1.586881801e-17 -0.03685600272)
(-0.007295766234 -1.87892366e-17 -0.03627277748)
(-0.007578613588 -2.016592424e-17 -0.03565519085)
(-0.00784833743 -2.094535853e-17 -0.03500252835)
(-0.008103252273 -2.075705924e-17 -0.03431417937)
(-0.008341525205 -2.016083838e-17 -0.03358965739)
(-0.008561183462 -1.933369722e-17 -0.03282861708)
(-0.008760125699 -1.940069724e-17 -0.03203086322)
(-0.008936132637 -1.950293103e-17 -0.03119635011)
(-0.009086878115 -1.933158525e-17 -0.03032517131)
(-0.009209941929 -1.942332047e-17 -0.02941753239)
(-0.009302817479 -1.853487547e-17 -0.02847370582)
(-0.009362914158 -1.766913073e-17 -0.02749396375)
(-0.009387551682 -1.701824152e-17 -0.02647848275)
(-0.009373939123 -1.585868377e-17 -0.02542721865)
(-0.009319137676 -1.470584525e-17 -0.02433974715)
(-0.009220001596 -1.354845321e-17 -0.02321507413)
(-0.009073099084 -1.337947337e-17 -0.02205143254)
(-0.00887462195 -1.29630557e-17 -0.02084608979)
(-0.008620300815 -1.18918905e-17 -0.01959521925)
(-0.00830536112 -1.145567695e-17 -0.01829390844)
(-0.00792455872 -1.160006489e-17 -0.01693635223)
(-0.007472327336 -1.000722582e-17 -0.01551625442)
(-0.006943041496 -9.222164882e-18 -0.01402738125)
(-0.006331339678 -8.337973567e-18 -0.0124640971)
(-0.005632399261 -6.793471933e-18 -0.01082160022)
(-0.004842052552 -5.182485091e-18 -0.009095483502)
(-0.003956617417 -3.935858736e-18 -0.007280298525)
(-0.002971835472 -3.0364062e-18 -0.005367268273)
(-0.001879720286 -1.931273509e-18 -0.003341938769)
(-0.0006635131491 -6.904127092e-19 -0.001182646333)
(-0.0002127146315 -1.393247592e-17 -0.04411274882)
(-0.0005563513811 -1.444016753e-17 -0.0440895914)
(-0.0008805810963 -8.441738206e-18 -0.04403595509)
(-0.001214671561 -5.640683587e-18 -0.04395628932)
(-0.001548313473 -3.728063502e-18 -0.04385169038)
(-0.001878745716 -6.185208729e-18 -0.04372293998)
(-0.002206423788 -1.073074389e-17 -0.04357053874)
(-0.002531843291 -1.29784682e-17 -0.0433947861)
(-0.002855290986 -1.372296546e-17 -0.04319580378)
(-0.003176992317 -1.16675775e-17 -0.04297353876)
(-0.003497125051 -1.441664889e-17 -0.04272776861)
(-0.003815797916 -1.547762021e-17 -0.04245810826)
(-0.004133037556 -1.400530676e-17 -0.04216401669)
(-0.004448781683 -1.325762845e-17 -0.04184480517)
(-0.004762873205 -1.400122409e-17 -0.04149964455)
(-0.005075050355 -1.359664669e-17 -0.04112757588)
(-0.005384941205 -1.376734344e-17 -0.0407275218)
(-0.005692055024 -1.365062407e-17 -0.04029829799)
(-0.00599577152 -1.444616545e-17 -0.03983862719)
(-0.006295334551 -1.552036946e-17 -0.03934715407)
(-0.006589839447 -1.796877392e-17 -0.03882245917)
(-0.006878222386 -2.014967433e-17 -0.03826307614)
(-0.007159250599 -1.980476936e-17 -0.03766750717)
(-0.007431508077 -2.160061506e-17 -0.03703423978)
(-0.00769338396 -2.064797417e-17 -0.03636176333)
(-0.007943061876 -1.961373355e-17 -0.03564858342)
(-0.008178506163 -1.855021724e-17 -0.03489323565)
(-0.008397450425 -1.579524935e-17 -0.03409429438)
(-0.008597387168 -1.628794924e-17 -0.03325037566)
(-0.008775555242 -1.686823259e-17 -0.03236013251)
(-0.008928927164 -1.477549591e-17 -0.03142223503)
(-0.009054193611 -1.399648468e-17 -0.03043533443)
(-0.009147741704 -1.347877719e-17 -0.02939800154)
(-0.009205624 -1.307448602e-17 -0.02830863423)
(-0.00922351327 -1.219819516e-17 -0.02716532534)
(-0.009196637441 -1.119787753e-17 -0.02596568497)
(-0.009119692612 -1.010457117e-17 -0.02470662083)
(-0.008986736051 -9.282715455e-18 -0.02338409774)
(-0.008791075848 -7.727100875e-18 -0.02199292228)
(-0.008525194762 -7.126295906e-18 -0.02052664497)
(-0.008180768054 -6.090029049e-18 -0.01897771358)
(-0.007748856969 -5.30460491e-18 -0.01733798051)
(-0.007220359423 -4.683229008e-18 -0.01559963124)
(-0.006586805688 -3.869054861e-18 -0.01375655004)
(-0.005841626271 -3.203283216e-18 -0.01180618075)
(-0.004982048006 -2.89589577e-18 -0.009752175033)
(-0.00401141036 -2.518041675e-18 -0.007608414692)
(-0.002940666727 -2.02437655e-18 -0.005404739511)
(-0.001788778889 -1.483323074e-18 -0.003192007116)
(-0.0005924533585 -3.044416882e-19 -0.001034721119)
(-0.0001744537692 3.7577172e-18 -0.04570736066)
(-0.000456577223 1.249350151e-18 -0.04568859089)
(-0.000723355426 4.069427819e-18 -0.04564455221)
(-0.0009987843415 -1.503206134e-19 -0.0455792697)
(-0.001274680246 -3.440703374e-18 -0.04549362123)
(-0.001548973558 -2.755790086e-18 -0.04538822699)
(-0.00182222758 -2.819010166e-18 -0.0452635008)
(-0.002095041307 -1.741015056e-18 -0.0451196894)
(-0.00236783752 -5.094487654e-18 -0.04495688369)
(-0.002640984163 -7.698781031e-18 -0.04477502055)
(-0.002914809504 -1.027332181e-17 -0.04457388532)
(-0.003189586499 -1.110149398e-17 -0.04435311466)
(-0.003465524407 -1.218468749e-17 -0.04411219917)
(-0.003742763611 -1.290970315e-17 -0.04385048638)
(-0.004021373031 -1.204656877e-17 -0.04356718395)
(-0.004301344785 -1.241774376e-17 -0.04326136269)
(-0.004582589811 -1.295827594e-17 -0.04293196184)
(-0.004864933952 -1.370811244e-17 -0.04257779104)
(-0.005148111328 -1.475799127e-17 -0.0421975349)
(-0.005431758851 -1.614207367e-17 -0.0417897553)
(-0.005715409175 -1.693214691e-17 -0.0413528931)
(-0.005998480252 -1.767939705e-17 -0.04088526987)
(-0.006280264632 -1.826292025e-17 -0.04038508709)
(-0.006559915695 -1.838111386e-17 -0.03985042553)
(-0.006836428974 -1.754074161e-17 -0.03927924346)
(-0.007108622026 -1.621957173e-17 -0.03866937297)
(-0.007375108167 -1.543961324e-17 -0.03801851624)
(-0.007634266119 -1.490299336e-17 -0.03732424086)
(-0.007884207646 -1.427157178e-17 -0.03658397149)
(-0.008122737017 -1.331816014e-17 -0.03579497907)
(-0.00834730713 -1.342064631e-17 -0.03495436501)
(-0.008554970924 -1.38307359e-17 -0.03405903469)
(-0.008742322316 -1.352994907e-17 -0.03310565875)
(-0.008905429282 -1.27756025e-17 -0.03209061405)
(-0.009039750627 -1.121524251e-17 -0.0310098962)
(-0.009140033311 -1.057484979e-17 -0.02985899341)
(-0.009200180941 -1.027080797e-17 -0.02863271359)
(-0.009213085863 -1.00402166e-17 -0.02732496605)
(-0.00917042626 -1.03178548e-17 -0.02592851353)
(-0.009062437329 -9.376628877e-18 -0.02443476836)
(-0.008877702408 -8.014445859e-18 -0.0228337689)
(-0.008603048414 -7.295693119e-18 -0.02111455153)
(-0.008223650006 -6.795669512e-18 -0.01926612968)
(-0.007723382389 -6.941554035e-18 -0.01727904566)
(-0.00708523669 -6.154789935e-18 -0.01514683728)
(-0.006291276766 -4.815638928e-18 -0.01286563419)
(-0.005321336152 -3.443633703e-18 -0.0104290483)
(-0.004149150873 -2.734503548e-18 -0.007816671189)
(-0.002734703519 -1.251625061e-18 -0.00497934606)
(-0.001011071689 -4.479142684e-19 -0.001831632583)
(-0.0001345759692 1.001265054e-18 -0.04702904465)
(-0.0003521601757 8.285807114e-18 -0.04701427477)
(-0.0005579412237 -3.234014409e-18 -0.04697924334)
(-0.000770758997 -2.412484245e-18 -0.04692734767)
(-0.0009844923715 -4.8483048e-18 -0.04685926323)
(-0.001197635945 -7.471685738e-18 -0.04677545249)
(-0.001410710879 -6.066197582e-18 -0.04667621588)
(-0.001624262144 -3.775541049e-18 -0.04656171271)
(-0.001838686379 -3.120621578e-18 -0.04643196316)
(-0.002054323679 -3.628709878e-18 -0.04628684845)
(-0.002271470541 -6.047785002e-18 -0.04612611136)
(-0.002490368669 -5.57569815e-18 -0.04594935733)
(-0.002711199807 -7.146178008e-18 -0.04575605573)
(-0.002934083827 -6.140456285e-18 -0.04554554209)
(-0.003159078379 -4.763729529e-18 -0.04531702198)
(-0.003386180927 -4.641774315e-18 -0.04506957561)
(-0.003615330738 -6.120028797e-18 -0.04480216278)
(-0.0038464103 -6.264246049e-18 -0.04451362867)
(-0.004079250222 -9.011013748e-18 -0.04420270997)
(-0.004313632794 -1.014932721e-17 -0.04386803785)
(-0.004549295477 -1.072028204e-17 -0.04350813964)
(-0.004785932984 -1.147019413e-17 -0.04312143555)
(-0.005023195983 -1.176683925e-17 -0.04270623024)
(-0.005260688616 -1.184870523e-17 -0.04226069719)
(-0.005497957045 -1.182557565e-17 -0.041782855)
(-0.005734475689 -1.159847566e-17 -0.04127053715)
(-0.005969624507 -1.171937857e-17 -0.04072135032)
(-0.006202658054 -1.189962733e-17 -0.04013262738)
(-0.006432667704 -1.279314532e-17 -0.03950136837)
(-0.0066585312 -1.180069753e-17 -0.03882417306)
(-0.006878853822 -1.108965885e-17 -0.03809715977)
(-0.007091893229 -1.098190131e-17 -0.03731586826)
(-0.007295467762 -9.797799986e-18 -0.03647513914)
(-0.007486842434 -9.065651734e-18 -0.03556896029)
(-0.007662580331 -9.360164508e-18 -0.03459026754)
(-0.007818351209 -9.318147773e-18 -0.03353068118)
(-0.007948676651 -9.773822322e-18 -0.03238015229)
(-0.008046588763 -8.847845652e-18 -0.03112649286)
(-0.00810317086 -8.538659174e-18 -0.02975475633)
(-0.008106950159 -7.737893762e-18 -0.02824645602)
(-0.008043125584 -7.528229087e-18 -0.02657866527)
(-0.007892669059 -6.723769455e-18 -0.02472319394)
(-0.007631433479 -7.276228331e-18 -0.02264635418)
(-0.007229624244 -5.707275321e-18 -0.02031027111)
(-0.006652575216 -5.049814885e-18 -0.01767719821)
(-0.005865113978 -4.155933364e-18 -0.01471917524)
(-0.004842847924 -3.873083645e-18 -0.01143912983)
(-0.003589261179 -2.698935368e-18 -0.007918005791)
(-0.002148602458 -1.369649082e-18 -0.004390373314)
(-0.000661892847 -8.977909203e-19 -0.001238762703)
(-9.779905913e-05 4.2313339e-18 -0.04806644638)
(-0.0002560470575 3.982427808e-18 -0.0480557216)
(-0.0004061545317 -1.691076998e-18 -0.0480301639)
(-0.000561891683 -7.485117621e-19 -0.04799231887)
(-0.0007189438196 -8.718138373e-18 -0.04794272588)
(-0.0008763781695 -6.441427029e-18 -0.04788173013)
(-0.001034725988 -3.197438527e-18 -0.04780955828)
(-0.001194526817 -2.227612843e-18 -0.04772633577)
(-0.001356208917 -1.651042393e-18 -0.0476320815)
(-0.001520158192 -4.610285246e-18 -0.04752670411)
(-0.001686728432 -8.192248768e-18 -0.04741000324)
(-0.00185623558 -8.472457303e-18 -0.04728167129)
(-0.00202895615 -4.86315261e-18 -0.04714129637)
(-0.002205128197 -4.553984439e-18 -0.04698836678)
(-0.002384952998 -5.163250054e-18 -0.04682227755)
(-0.002568597257 -5.211965114e-18 -0.0466423383)
(-0.002756193251 -6.166518331e-18 -0.04644778247)
(-0.002947839037 -6.770995652e-18 -0.04623777829)
(-0.003143597706 -7.525266778e-18 -0.04601143741)
(-0.003343491896 -8.645210944e-18 -0.045767822)
(-0.003547498681 -1.01588935e-17 -0.04550595102)
(-0.003755541296 -1.084736301e-17 -0.0452247999)
(-0.00396748105 -1.032923387e-17 -0.0449232969)
(-0.004183109374 -1.090539174e-17 -0.04460031265)
(-0.004402142899 -1.162693258e-17 -0.04425464429)
(-0.004624222144 -1.179898826e-17 -0.04388499302)
(-0.004848914333 -1.209130759e-17 -0.04348993614)
(-0.005075722139 -1.193674051e-17 -0.04306789374)
(-0.005304096149 -1.19018173e-17 -0.04261708965)
(-0.005533450019 -1.053718693e-17 -0.04213550688)
(-0.005763177657 -1.064767081e-17 -0.04162083517)
(-0.005992668991 -1.097980952e-17 -0.04107040655)
(-0.006221321815 -1.036217989e-17 -0.0404811113)
(-0.006448542783 -9.317818662e-18 -0.03984928162)
(-0.006673730176 -8.116931927e-18 -0.03917052669)
(-0.006896225408 -6.850631196e-18 -0.03843949424)
(-0.007115218765 -6.152994291e-18 -0.03764952892)
(-0.007329585885 -5.310857557e-18 -0.03679218318)
(-0.007537627643 -4.416345977e-18 -0.0358565184)
(-0.007736663607 -4.183261837e-18 -0.03482809151)
(-0.007922404945 -3.911220805e-18 -0.03368746926)
(-0.008087984098 -3.582198779e-18 -0.03240803986)
(-0.008222391543 -4.2075604e-18 -0.0309528859)
(-0.008307928345 -4.549751268e-18 -0.02927043777)
(-0.008316308832 -4.246493189e-18 -0.02728822619)
(-0.008202677029 -3.580970431e-18 -0.02490357687)
(-0.007892178918 -3.417725153e-18 -0.02197036172)
(-0.007236953443 -3.240329053e-18 -0.0182690914)
(-0.005886362445 -2.994753557e-18 -0.01338044335)
(-0.002951555379 -2.721551176e-18 -0.006256489086)
(-7.140283223e-05 2.42438832e-18 -0.04868001993)
(-0.0001866291956 -1.487436721e-18 -0.0486714625)
(-0.0002959172392 -2.964477128e-18 -0.04865125586)
(-0.0004097356384 -4.276955037e-18 -0.04862149718)
(-0.0005247290132 -2.748302669e-18 -0.04858248733)
(-0.0006403168286 -8.050539288e-19 -0.04853445981)
(-0.0007569476192 -1.525387479e-18 -0.04847758605)
(-0.0008750193247 -2.700125709e-18 -0.0484119395)
(-0.0009948293351 -5.244747648e-18 -0.04833749225)
(-0.001116628196 -4.508058491e-18 -0.04825411537)
(-0.001240620796 -5.034642988e-18 -0.04816157993)
(-0.001366961088 -5.046805816e-18 -0.04805955908)
(-0.001495750828 -5.513939715e-18 -0.04794763115)
(-0.001627039046 -8.213122733e-18 -0.04782528291)
(-0.001760820138 -8.883713983e-18 -0.04769191209)
(-0.00189702886 -9.668371353e-18 -0.04754682839)
(-0.002035533767 -1.0260874e-17 -0.04738925217)
(-0.002176131091 -9.77051256e-18 -0.04721830796)
(-0.002318535979 -9.776745471e-18 -0.04703301253)
(-0.002462372819 -9.9934044e-18 -0.04683226167)
(-0.002607172973 -1.03293542e-17 -0.04661481709)
(-0.002752376371 -1.029422981e-17 -0.04637929437)
(-0.00289734161 -1.007219354e-17 -0.04612416127)
(-0.003041364533 -1.050237855e-17 -0.04584774382)
(-0.003183701818 -1.063020389e-17 -0.04554824708)
(-0.003323597397 -1.024845952e-17 -0.04522378446)
(-0.003460304407 -1.038589229e-17 -0.04487241532)
(-0.003593097976 -1.027342685e-17 -0.04449218113)
(-0.003721274255 -1.065972729e-17 -0.04408113746)
(-0.003844135511 -1.075031148e-17 -0.04363737254)
(-0.003960963943 -1.069959106e-17 -0.04315901153)
(-0.004070989853 -1.057242963e-17 -0.04264420035)
(-0.004173361835 -1.004094212e-17 -0.04209106896)
(-0.004267122504 -9.445366971e-18 -0.04149766517)
(-0.004351187787 -8.762318902e-18 -0.04086185288)
(-0.004424319677 -8.166531184e-18 -0.0401811597)
(-0.004485076482 -7.697194735e-18 -0.03945256576)
(-0.004531724345 -7.152380338e-18 -0.03867222359)
(-0.004562092236 -6.713856661e-18 -0.03783511218)
(-0.004573345394 -6.373080824e-18 -0.03693462808)
(-0.004561619839 -6.076844046e-18 -0.03596207313)
(-0.004521408802 -5.7727229e-18 -0.03490576187)
(-0.004444520295 -5.330514036e-18 -0.03374890045)
(-0.00431833431 -5.225595867e-18 -0.03246447375)
(-0.004122753616 -5.026457677e-18 -0.03100427679)
(-0.00382477211 -4.804600588e-18 -0.02927743487)
(-0.003372400697 -4.650706905e-18 -0.02710735136)
(-0.002702972015 -4.595384035e-18 -0.02412504667)
(-0.001791067295 -3.427501746e-18 -0.01942326996)
(-0.0007524968309 -1.701375538e-18 -0.01039043751)
(-5.542357247e-05 -1.520929656e-18 -0.04903549801)
(-0.0001449571008 -2.343052885e-18 -0.04902801288)
(-0.0002301856769 -3.168671471e-18 -0.04901027501)
(-0.000319251456 -4.593864129e-18 -0.04898420213)
(-0.0004095247286 -9.658181497e-19 -0.04894997753)
(-0.0005006546892 -1.828677012e-18 -0.04890773865)
(-0.0005930560727 -2.869771214e-18 -0.04885756028)
(-0.0006870665949 -4.181519441e-18 -0.04879940724)
(-0.0007829222578 -5.683554221e-18 -0.04873313091)
(-0.0008808014167 -5.136143885e-18 -0.04865847169)
(-0.0009808224338 -4.538784074e-18 -0.04857505858)
(-0.001083033971 -5.219043453e-18 -0.04848240985)
(-0.001187409193 -7.035480614e-18 -0.04837993308)
(-0.001293838903 -8.893180087e-18 -0.04826692207)
(-0.001402121174 -9.114068489e-18 -0.04814254954)
(-0.001511950899 -9.341813973e-18 -0.04800585647)
(-0.001622914282 -1.012741849e-17 -0.04785573768)
(-0.001734490976 -1.002382212e-17 -0.04769092734)
(-0.001846063326 -1.006521597e-17 -0.04750999049)
(-0.001956940643 -1.017043004e-17 -0.0473113304)
(-0.002066400432 -1.027705605e-17 -0.0470932118)
(-0.002173734664 -1.035057302e-17 -0.04685380556)
(-0.002278301914 -1.039581736e-17 -0.04659124908)
(-0.002379572174 -1.037825361e-17 -0.04630370777)
(-0.002477157564 -1.023712609e-17 -0.04598942255)
(-0.002570823267 -1.000823012e-17 -0.04564672094)
(-0.002660476576 -9.746882593e-18 -0.04527398331)
(-0.002746135307 -9.929377696e-18 -0.04486955964)
(-0.002827880117 -9.951994529e-18 -0.04443165343)
(-0.002905795397 -1.005726708e-17 -0.04395819297)
(-0.002979903189 -1.029151929e-17 -0.04344671946)
(-0.003050094254 -1.008010653e-17 -0.04289431071)
(-0.003116062068 -9.806847916e-18 -0.04229753995)
(-0.003177243863 -9.499232865e-18 -0.04165243254)
(-0.003232769092 -9.15889874e-18 -0.04095435371)
(-0.003281407452 -8.802766729e-18 -0.04019774664)
(-0.003321497982 -8.448589546e-18 -0.0393756513)
(-0.003350833386 -8.081509542e-18 -0.03847895323)
(-0.003366462526 -7.71106927e-18 -0.03749529869)
(-0.003364358557 -7.322470275e-18 -0.03640752503)
(-0.00333888316 -6.932785799e-18 -0.03519122337)
(-0.003281989525 -6.564099433e-18 -0.0338106719)
(-0.003182206436 -6.069422082e-18 -0.03221198787)
(-0.003023711707 -5.413066574e-18 -0.03031238497)
(-0.002786047676 -4.628938675e-18 -0.02798550945)
(-0.002444461645 -3.662169763e-18 -0.0250461685)
(-0.001971198473 -3.301587142e-18 -0.02124839154)
(-0.001354410655 -2.687896042e-18 -0.01634175356)
(-0.0006856250863 -1.725016546e-18 -0.01026790311)
(-0.0001649556673 -6.062099326e-19 -0.00344907118)
(-4.136548035e-05 -5.484677704e-19 -0.04930919403)
(-0.000108162146 4.604449344e-19 -0.04930293782)
(-0.0001718425133 -6.654841147e-19 -0.04928802642)
(-0.0002386534999 -1.662681938e-18 -0.04926611981)
(-0.000306683609 -1.966996519e-18 -0.04923730447)
(-0.0003757121176 -2.518251412e-18 -0.04920162803)
(-0.0004460668915 -3.726790046e-18 -0.04915906319)
(-0.000517989756 -4.841477044e-18 -0.0491094621)
(-0.000591613814 -5.737836231e-18 -0.04905255105)
(-0.000666991402 -6.311710576e-18 -0.04898793107)
(-0.0007440887112 -6.942885669e-18 -0.04891507296)
(-0.0008227737776 -7.325948643e-18 -0.04883330805)
(-0.0009028090341 -7.845807358e-18 -0.04874181564)
(-0.0009838487312 -9.076200178e-18 -0.04863960847)
(-0.001065444292 -8.492098788e-18 -0.04852552178)
(-0.001147063385 -8.396801094e-18 -0.04839821248)
(-0.001228124656 -8.717338037e-18 -0.04825617698)
(-0.00130804418 -9.088045097e-18 -0.04809779461)
(-0.001386287798 -9.567291045e-18 -0.04792139725)
(-0.001462424619 -1.000589544e-17 -0.04772535183)
(-0.001536164562 -1.032464903e-17 -0.04750813568)
(-0.001607373302 -1.048723971e-17 -0.04726838512)
(-0.001676064685 -1.055294624e-17 -0.04700489399)
(-0.001742369778 -1.060484854e-17 -0.04671656506)
(-0.001806493309 -1.054445013e-17 -0.04640232048)
(-0.001868662794 -1.04158424e-17 -0.04606099742)
(-0.001929078953 -1.029171002e-17 -0.0456912481)
(-0.001987871971 -1.015996319e-17 -0.04529145917)
(-0.002045064758 -1.003319877e-17 -0.04485968843)
(-0.002100544923 -9.659716187e-18 -0.04439361291)
(-0.002154040891 -1.003827069e-17 -0.04389047435)
(-0.00220509638 -9.945763612e-18 -0.04334702353)
(-0.002253035843 -9.802053175e-18 -0.04275945612)
(-0.002296916165 -9.604282725e-18 -0.04212332463)
(-0.002335460651 -9.368988691e-18 -0.04143337605)
(-0.002366974618 -9.151502599e-18 -0.04068324864)
(-0.002389237037 -8.916767252e-18 -0.03986494014)
(-0.002399358739 -8.601495123e-18 -0.03896795675)
(-0.002393589211 -8.244444018e-18 -0.03797802036)
(-0.002367058721 -7.862692075e-18 -0.03687514703)
(-0.002313473922 -7.407991774e-18 -0.03563083833)
(-0.002224873597 -6.851388493e-18 -0.03420417222)
(-0.002091715478 -6.2098518e-18 -0.03253693268)
(-0.001903820401 -5.44249813e-18 -0.03054873902)
(-0.001653047574 -4.509998046e-18 -0.02813426412)
(-0.001338687872 -5.011901029e-18 -0.02516483249)
(-0.0009752790861 -2.927673338e-18 -0.02149317514)
(-0.00059917124 -2.275696671e-18 -0.01695264125)
(-0.0002692026309 -1.488529449e-18 -0.01133987286)
(-6.490483766e-05 -5.497930021e-19 -0.004379337731)
(-2.941085714e-05 3.830884197e-18 -0.0495094154)
(-7.696336522e-05 1.51876128e-17 -0.04950425232)
(-0.0001224891395 3.533035033e-18 -0.04949186888)
(-0.0001704977881 -1.19332242e-19 -0.04947360475)
(-0.0002196875317 -9.877468217e-19 -0.04944944963)
(-0.0002699342848 -4.810803515e-19 -0.04941932968)
(-0.0003214655219 -3.871989659e-18 -0.0493830688)
(-0.0003744044461 -5.386923656e-18 -0.04934034795)
(-0.0004287520062 -6.162799177e-18 -0.0492906925)
(-0.0004844025691 -6.197512475e-18 -0.04923346291)
(-0.0005411448083 -8.797690954e-18 -0.0491678422)
(-0.0005986675308 -8.443936526e-18 -0.04909282565)
(-0.0006565793118 -8.214950586e-18 -0.04900722267)
(-0.0007144432963 -7.783165151e-18 -0.04890968062)
(-0.0007718264098 -8.325198428e-18 -0.0487987372)
(-0.0008283559205 -7.621123385e-18 -0.04867289787)
(-0.0008837703263 -7.622699693e-18 -0.04853072303)
(-0.0009379533678 -8.09843921e-18 -0.04837090025)
(-0.0009909476047 -9.423840493e-18 -0.04819227318)
(-0.00104294285 -1.022045286e-17 -0.04799381307)
(-0.001094239085 -1.068428797e-17 -0.04777454641)
(-0.001145198715 -1.095551984e-17 -0.04753346377)
(-0.001196190524 -1.107202843e-17 -0.04726944408)
(-0.001247537523 -1.109548361e-17 -0.04698121432)
(-0.001299475532 -1.104901557e-17 -0.04666733587)
(-0.001352124913 -1.092334632e-17 -0.04632619734)
(-0.001405475184 -1.074985716e-17 -0.0459559852)
(-0.001459379187 -1.050240407e-17 -0.0455546249)
(-0.001513548728 -1.012751068e-17 -0.04511969387)
(-0.001567549695 -9.597623205e-18 -0.04464832066)
(-0.001620793596 -9.937879083e-18 -0.0441370746)
(-0.001672520918 -1.002565193e-17 -0.04358184942)
(-0.001721772748 -9.972813002e-18 -0.04297773035)
(-0.00176734504 -9.809325098e-18 -0.04231881659)
(-0.001807722104 -9.533981592e-18 -0.04159794823)
(-0.001840986721 -9.454929932e-18 -0.04080626156)
(-0.001864707763 -9.340854957e-18 -0.03993248161)
(-0.001875807842 -9.16670453e-18 -0.03896184758)
(-0.001870423048 -8.711643148e-18 -0.03787458133)
(-0.001843791438 -8.242631805e-18 -0.03664383425)
(-0.001790252976 -7.732670811e-18 -0.03523316865)
(-0.001703515747 -7.160507678e-18 -0.03359386734)
(-0.001577409063 -6.509974188e-18 -0.03166274978)
(-0.001407335683 -5.797967788e-18 -0.02936153783)
(-0.001192388089 -5.044603204e-18 -0.02659911887)
(-0.0009377108627 -2.401047829e-18 -0.02327835482)
(-0.0006571330443 -3.290495918e-18 -0.01930992095)
(-0.0003785407598 -2.377644086e-18 -0.01463575284)
(-0.0001523468662 -1.440756591e-18 -0.009259116252)
(-2.764077365e-05 -4.878476089e-19 -0.003264560988)
(-1.971411728e-05 -1.15688011e-18 -0.04964964753)
(-5.162450675e-05 -1.75159604e-18 -0.04964542128)
(-8.234068162e-05 -3.142217952e-18 -0.04963527492)
(-0.0001149695616 -2.912885966e-18 -0.04962021825)
(-0.0001486704896 -2.812387994e-18 -0.04960011913)
(-0.0001833487167 -3.741146494e-18 -0.04957473806)
(-0.0002190933119 -4.548242983e-18 -0.04954368896)
(-0.0002558734523 -5.846784314e-18 -0.04950639785)
(-0.0002935400101 -7.384284558e-18 -0.04946209331)
(-0.0003318574978 -6.247673608e-18 -0.04940981017)
(-0.0003705379612 -7.517586157e-18 -0.04934841458)
(-0.0004092861966 -8.288280911e-18 -0.04927665646)
(-0.0004478519269 -9.216576767e-18 -0.049193247)
(-0.0004860775384 -1.035182427e-17 -0.04909694472)
(-0.00052393158 -1.062862063e-17 -0.04898662197)
(-0.0005615209567 -1.078699487e-17 -0.04886128571)
(-0.0005990768622 -1.15154709e-17 -0.04872004623)
(-0.0006369218365 -1.148730736e-17 -0.04856205067)
(-0.0006754272595 -1.1644869e-17 -0.04838641222)
(-0.0007149636603 -1.182016266e-17 -0.04819216356)
(-0.0007558590087 -1.196109833e-17 -0.04797823849)
(-0.0007983703276 -1.201825731e-17 -0.04774346391)
(-0.0008426639384 -1.197966203e-17 -0.04748654872)
(-0.0008888055754 -1.191969968e-17 -0.04720605743)
(-0.0009367530565 -1.182000283e-17 -0.0469003771)
(-0.0009863497852 -1.168921898e-17 -0.0465676764)
(-0.001037319363 -1.152574559e-17 -0.04620585755)
(-0.001089261721 -1.138478455e-17 -0.04581249211)
(-0.001141650407 -1.126101888e-17 -0.04538474194)
(-0.001193827699 -1.123325011e-17 -0.04491925918)
(-0.001244997096 -1.139534799e-17 -0.04441207134)
(-0.001294206693 -1.110361412e-17 -0.04385843968)
(-0.001340322153 -1.09326653e-17 -0.04325268466)
(-0.001381983116 -1.088371403e-17 -0.04258794521)
(-0.001417544057 -1.057828703e-17 -0.04185583095)
(-0.001444998116 -1.004457304e-17 -0.04104590108)
(-0.00146189442 -9.547139123e-18 -0.04014489908)
(-0.001465264126 -9.584040868e-18 -0.03913568443)
(-0.001451592751 -8.801871001e-18 -0.0379958566)
(-0.00141689497 -8.577530869e-18 -0.03669616872)
(-0.001356984769 -9.253662145e-18 -0.0351989846)
(-0.001268037247 -8.029251285e-18 -0.03345722853)
(-0.001147525411 -7.189726888e-18 -0.03141440099)
(-0.0009955201202 -6.347699697e-18 -0.02900621791)
(-0.0008161739519 -5.465417662e-18 -0.02616410734)
(-0.0006189599516 -4.43513718e-18 -0.02282015567)
(-0.000419040292 -3.429797933e-18 -0.01891234979)
(-0.0002365930645 -2.374688239e-18 -0.01438857186)
(-9.562973259e-05 -1.234640948e-18 -0.009207659046)
(-1.962784725e-05 2.254834172e-20 -0.003333347448)
(-1.217177285e-05 1.499406935e-17 -0.04974206034)
(-3.190549816e-05 -2.834443329e-18 -0.04973868006)
(-5.104768204e-05 2.298696751e-18 -0.04973050521)
(-7.156864494e-05 -5.728594555e-19 -0.04971818829)
(-9.293755368e-05 2.215921496e-19 -0.04970140054)
(-0.0001150369159 -4.264971114e-18 -0.04967964066)
(-0.0001378275383 -4.61528668e-18 -0.04965222114)
(-0.0001611895582 -5.100616784e-18 -0.04961826641)
(-0.0001849624328 -5.100053426e-18 -0.04957676485)
(-0.0002090017937 -8.793286683e-18 -0.04952664307)
(-0.0002332233102 -7.862519173e-18 -0.04946684663)
(-0.000257636563 -8.796733911e-18 -0.04939640066)
(-0.0002823608598 -9.451566868e-18 -0.0493144258)
(-0.0003076194822 -1.201733484e-17 -0.04922010801)
(-0.000333715679 -1.277274392e-17 -0.04911264475)
(-0.0003609951445 -1.392341526e-17 -0.0489911999)
(-0.000389805701 -1.443805866e-17 -0.04885488532)
(-0.0004204656079 -1.437943658e-17 -0.04870275974)
(-0.0004532395219 -1.366374321e-17 -0.04853382642)
(-0.0004883216727 -1.336121624e-17 -0.04834701693)
(-0.0005258298793 -1.332708512e-17 -0.04814115936)
(-0.0005658003079 -1.35422159e-17 -0.04791494364)
(-0.0006081854255 -1.306560489e-17 -0.04766688846)
(-0.0006528537964 -1.275651887e-17 -0.04739530886)
(-0.0006995897846 -1.252856011e-17 -0.04709828622)
(-0.0007480911431 -1.232938531e-17 -0.04677363254)
(-0.0007979652336 -1.212555443e-17 -0.04641884645)
(-0.0008487228456 -1.189347081e-17 -0.04603105001)
(-0.0008997713125 -1.164708821e-17 -0.04560690498)
(-0.0009504042295 -1.10118683e-17 -0.04514250076)
(-0.0009997873887 -1.094897876e-17 -0.0446332143)
(-0.001046939258 -1.082787754e-17 -0.04407353366)
(-0.001090701196 -1.061666562e-17 -0.04345683171)
(-0.001129698445 -1.032736422e-17 -0.04277506633)
(-0.001162290584 -1.047144079e-17 -0.04201836621)
(-0.001186518901 -1.015749761e-17 -0.04117446457)
(-0.00120006362 -9.795340257e-18 -0.04022793767)
(-0.001200238658 -9.393895243e-18 -0.03915925806)
(-0.001184060047 -9.213478409e-18 -0.03794373713)
(-0.00114843904 -8.754607524e-18 -0.03655053957)
(-0.001090547144 -8.232306323e-18 -0.0349420533)
(-0.001008376551 -7.755086545e-18 -0.03307395461)
(-0.0009014673386 -7.150145632e-18 -0.03089625779)
(-0.0007716879984 -6.381894068e-18 -0.02835551537)
(-0.000623879886 -5.552116753e-18 -0.02539811711)
(-0.0004661367757 -4.672657132e-18 -0.02197453126)
(-0.0003097262659 -3.693893845e-18 -0.01804425211)
(-0.0001694206809 -2.683692505e-18 -0.01358100876)
(-6.450972955e-05 -1.636557616e-18 -0.008577117164)
(-1.11349908e-05 -5.535043855e-19 -0.003044134843)
(-6.56651845e-06 -2.256788189e-18 -0.04979840319)
(-1.72366859e-05 -3.881380528e-18 -0.04979571888)
(-2.769805658e-05 -3.409667498e-18 -0.04978905967)
(-3.902240896e-05 -4.462773463e-18 -0.04977867123)
(-5.089912503e-05 -5.252873057e-18 -0.04976396567)
(-6.323658154e-05 -5.848021264e-18 -0.04974419719)
(-7.600811018e-05 -6.151725503e-18 -0.04971853317)
(-8.919749753e-05 -6.620567702e-18 -0.0496861161)
(-0.0001028347045 -6.678453237e-18 -0.04964612162)
(-0.0001170263782 -8.080235446e-18 -0.04959777417)
(-0.0001319586691 -9.363512487e-18 -0.04954032247)
(-0.0001478827321 -1.057662879e-17 -0.04947300436)
(-0.0001650901945 -1.183502975e-17 -0.0493950274)
(-0.000183884304 -1.263721536e-17 -0.04930557251)
(-0.0002045538278 -1.281110542e-17 -0.04920380392)
(-0.0002273534816 -1.310232308e-17 -0.04908886598)
(-0.0002524929516 -1.328652611e-17 -0.04895986149)
(-0.0002801298172 -1.331846305e-17 -0.04881582254)
(-0.0003103605555 -1.317698154e-17 -0.04865568373)
(-0.0003432179473 -1.300944222e-17 -0.04847825731)
(-0.0003786727634 -1.288972539e-17 -0.04828220883)
(-0.0004166327059 -1.299609711e-17 -0.04806603619)
(-0.0004569440084 -1.285731544e-17 -0.04782804488)
(-0.0004993903877 -1.293218784e-17 -0.04756632189)
(-0.0005436916574 -1.29382898e-17 -0.04727870265)
(-0.0005894994156 -1.280579565e-17 -0.04696273032)
(-0.0006363901465 -1.258021972e-17 -0.04661560072)
(-0.0006838569682 -1.224877688e-17 -0.04623409081)
(-0.0007312980468 -1.179290191e-17 -0.0458144622)
(-0.0007780036724 -1.12278143e-17 -0.04535233757)
(-0.0008231387292 -1.07614568e-17 -0.04484253991)
(-0.0008657228018 -1.08022541e-17 -0.04427889348)
(-0.0009046028974 -1.06894564e-17 -0.04365396611)
(-0.0009384239226 -1.03914544e-17 -0.04295873982)