/*--------------------------------*- C++ -*----------------------------------*\
  =========                 |
  \\      /  F ield         | OpenFOAM: The Open Source CFD Toolbox
   \\    /   O peration     | Website:  https://openfoam.org
    \\  /    A nd           | Version:  7
     \\/     M anipulation  |
\*---------------------------------------------------------------------------*/
FoamFile
{
    version     2.0;
    format      ascii;
    class       volTensorField;
    location    "0.0012";
    object      grad(U);
}
// * * * * * * * * * * * * * * * * * * * * * * * * * * * * * * * * * * * * * //

dimensions      [0 0 -1 0 0 0 0];

internalField   nonuniform List<tensor> 
1167
(
(0.0008965159519 -2.304691528e-15 -8.434522849e-05 -3.35040959e-15 0.00147001839 4.206368637e-13 -8.930777579e-06 -1.866104448e-14 0.01079464287)
(0.00118588441 -3.086947519e-15 -0.0001951783014 9.102605112e-16 0.00128373642 0 -2.307841713e-05 -3.741984282e-15 0.01079648417)
(0.001155300122 -2.550516526e-15 -0.0003156044099 1.728563049e-15 0.001223213063 -1.772818591e-13 -3.595007893e-05 7.429730591e-15 0.01080033192)
(0.001159326182 3.563069436e-15 -0.0004357770736 1.857358492e-15 0.001207179516 0 -4.860462891e-05 1.684885602e-15 0.01080612526)
(0.001133782988 6.810327684e-15 -0.0005552601412 -3.399540242e-16 0.001194562317 0 -6.101777139e-05 5.172471697e-16 0.01081372143)
(0.001099451264 5.14845462e-15 -0.0006745465706 -1.22680767e-15 0.001180969153 0 -7.341318305e-05 7.827070801e-16 0.01082305919)
(0.00106005392 9.487342931e-16 -0.0007931992036 -1.757974084e-15 0.001166257651 -3.809873993e-14 -8.520943254e-05 1.884747331e-15 0.01083423619)
(0.001013989962 1.050796344e-15 -0.0009107451579 -1.212191145e-15 0.001150186605 0 -9.588121329e-05 -9.781019217e-16 0.01084651066)
(0.0009623601965 5.375809264e-16 -0.001027396223 -1.569671539e-15 0.001132460952 3.079939939e-14 -0.0001056352091 -5.528218709e-15 0.01085999825)
(0.0009070344298 -3.055364725e-15 -0.001143591751 -1.113676215e-15 0.001113280358 0 -0.0001148323195 -3.931526009e-15 0.01087467037)
(0.0008472439825 -3.232719612e-15 -0.001258872358 -7.52832647e-16 0.001092796577 0 -0.0001230141439 -1.444480094e-15 0.01089030209)
(0.0007837457137 -1.494306289e-15 -0.001373248069 -4.258214191e-16 0.001070978785 -2.473992245e-14 -0.0001303111217 3.620289628e-16 0.01090680483)
(0.0007177777692 -4.165967039e-16 -0.001487083619 -4.170346483e-16 0.001048035562 0 -0.0001371618903 8.233536785e-17 0.0109243176)
(0.0006484843266 2.921715402e-16 -0.001599498509 -3.154024105e-16 0.001024082913 0 -0.0001428958608 4.46445719e-17 0.01094234921)
(0.0005764917945 1.809195198e-16 -0.00171045828 -4.007681606e-16 0.0009991361219 0 -0.0001477749089 2.126141106e-16 0.0109609406)
(0.0005021776933 -4.384953961e-16 -0.001819683625 -3.053208013e-16 0.0009733435966 0 -0.0001517841138 2.693409595e-16 0.01097998596)
(0.0004258321482 8.236080969e-17 -0.00192685495 -3.069189804e-16 0.0009467396911 0 -0.0001549764358 3.539066345e-16 0.01099934041)
(0.000348113982 -4.892080775e-16 -0.002031737151 -2.834097993e-16 0.0009194532514 0 -0.0001574957515 4.7369732e-16 0.01101913176)
(0.000268964002 1.29118461e-15 -0.002133760296 -2.34576443e-16 0.0008915555783 -9.328399133e-15 -0.0001592384981 1.126029376e-15 0.01103897515)
(0.0001887617225 3.100420926e-15 -0.002232397218 -3.686646366e-16 0.0008631275581 0 -0.000160195612 1.505713731e-15 0.01105904276)
(0.0001076554841 2.254581701e-15 -0.002327167307 -4.668414522e-16 0.000834244633 -1.778774501e-14 -0.0001604316935 2.192737211e-15 0.01107896467)
(2.611453876e-05 8.866868858e-16 -0.002417442195 -5.12835255e-16 0.0008049713874 0 -0.0001599341602 1.900011909e-15 0.01109890876)
(-5.566548028e-05 2.234342614e-16 -0.002502717836 -4.994785065e-16 0.000775392618 -8.560100261e-15 -0.0001588116695 1.848135117e-15 0.01111856287)
(-0.0001373119853 3.596862205e-16 -0.002582255337 -4.935538718e-16 0.000745563086 0 -0.0001570297449 1.192436359e-15 0.01113802529)
(-0.0002190743702 4.520974694e-16 -0.002655401065 -4.926162832e-16 0.0007155671469 0 -0.0001546138997 7.159627403e-16 0.0111570655)
(-0.0003009122411 5.747346174e-16 -0.002721345114 -4.924118559e-16 0.0006854245284 0 -0.0001515451289 6.339017075e-16 0.01117562287)
(-0.0003823120723 7.240386571e-16 -0.002779507282 -4.988165511e-16 0.000655202208 0 -0.0001479738456 8.714610027e-16 0.01119369527)
(-0.0004628998465 8.613759817e-16 -0.00282934407 -5.037636601e-16 0.0006249389644 0 -0.0001441711873 9.338483061e-16 0.01121111685)
(-0.0005427533824 4.048955727e-16 -0.002869782077 -5.170005563e-16 0.0005947046039 0 -0.00013983931 8.401057312e-16 0.01122798674)
(-0.0006223206739 -5.729428132e-16 -0.002900186616 -5.007085633e-16 0.0005645202204 0 -0.0001351990876 7.904885404e-16 0.01124400293)
(-0.0007008320749 -7.684108648e-16 -0.002919430822 -4.611985838e-16 0.0005344182932 -7.854758416e-15 -0.0001299681706 7.125789522e-16 0.01125942)
(-0.000778497952 -3.898500509e-16 -0.002927019389 -4.388142037e-16 0.0005044492983 0 -0.0001244803544 2.586193616e-16 0.01127396563)
(-0.0008550127001 -2.169205742e-16 -0.00292181757 -4.246546227e-16 0.0004746259946 0 -0.0001184909117 1.446236017e-16 0.01128778052)
(-0.0009302209459 -2.156596312e-16 -0.002903227749 -4.100347986e-16 0.0004450015642 0 -0.0001122181933 9.293182848e-18 0.01130071135)
(-0.00100400233 2.157419826e-16 -0.002870550024 -3.967906188e-16 0.0004155885143 0 -0.000105839795 -1.281196048e-16 0.01131277505)
(-0.001076484561 1.165476868e-15 -0.002822865836 -4.027837596e-16 0.0003864341122 0 -9.922856618e-05 -1.850194911e-16 0.01132401454)
(0.0009157261497 -1.712468273e-14 -8.66147236e-05 -5.478361565e-14 0.001501570465 0 -9.825474305e-06 -2.17173928e-15 0.01067441606)
(0.001211235668 -2.053991183e-14 -0.000200542051 -3.229959066e-15 0.001311261606 0 -2.556299031e-05 -7.066472869e-15 0.01067666719)
(0.001179830576 -7.578853483e-16 -0.0003248728293 5.189526512e-15 0.00124939566 0 -4.046869369e-05 -5.659400642e-15 0.01068131361)
(0.001184493636 8.176746055e-15 -0.0004496023381 1.81567471e-16 0.001232936453 6.610669877e-14 -5.576313484e-05 -7.101004476e-15 0.01068834777)
(0.001159887874 2.964636715e-15 -0.0005733349409 -7.872952756e-16 0.001220258648 0 -7.05034387e-05 -2.955482879e-15 0.01069775838)
(0.001124591456 9.142917777e-16 -0.0006961120257 -9.609006104e-16 0.001206814814 0 -8.447210951e-05 -6.747473719e-16 0.01070889105)
(0.001082170829 4.598515949e-15 -0.0008173758951 -8.40721359e-16 0.001191803356 -3.869207513e-14 -9.707935665e-05 1.041137121e-15 0.01072151804)
(0.001034708237 9.064175515e-15 -0.0009377862945 -1.822403511e-15 0.00117510187 3.447835926e-14 -0.0001088928946 -1.897792855e-15 0.0107357938)
(0.000982976722 1.567956063e-15 -0.00105790718 -2.655588923e-15 0.001156928739 0 -0.0001203183684 -1.29542679e-15 0.01075167294)
(0.0009257946078 -6.346487627e-15 -0.001176839641 -1.837029675e-15 0.001137348099 0 -0.000130453473 -1.152968618e-15 0.0107687095)
(0.000864205059 -5.855234716e-15 -0.001294718797 -1.078221374e-15 0.001116267371 0 -0.0001395192783 -1.341537808e-15 0.01078686275)
(0.0007998474347 -2.422849795e-15 -0.001412084313 -6.103414667e-16 0.00109391446 0 -0.0001480703311 -2.154902354e-15 0.01080629417)
(0.0007316884382 -2.428472356e-16 -0.001528046254 -5.569701518e-16 0.001070438654 0 -0.0001553682911 -1.311952466e-15 0.01082654233)
(0.0006604661292 -6.633180277e-16 -0.001642644167 -4.970395349e-16 0.001045824321 2.26208215e-14 -0.0001617128014 -1.383491899e-15 0.01084759326)
(0.0005869197157 -7.134488355e-16 -0.001755826887 -4.070095706e-16 0.001020262542 -1.082539741e-14 -0.0001672509175 -1.472064272e-16 0.01086946729)
(0.0005109010268 -3.990319086e-16 -0.001866947571 -3.583662363e-16 0.0009938039765 0 -0.0001716760776 -1.80477228e-16 0.01089173437)
(0.000433060298 -3.128780439e-16 -0.00197600672 -3.239704262e-16 0.0009665578005 0 -0.0001753384133 -2.623451023e-16 0.0109146223)
(0.0003535325587 -4.594853025e-16 -0.002082307589 -2.925809285e-16 0.0009386116515 0 -0.0001779722588 -3.758351439e-16 0.01093763004)
(0.000272524315 -3.372126737e-16 -0.00218553562 -2.567329203e-16 0.0009100464769 1.89473521e-14 -0.0001797368161 -1.052784895e-15 0.01096094921)
(0.0001903622455 -3.449375467e-16 -0.002285152104 -2.345676637e-16 0.0008809357225 -9.238357217e-15 -0.0001806218287 2.052470854e-16 0.01098413962)
(0.0001073968815 5.989107842e-16 -0.002380655558 -2.028757736e-16 0.0008513585043 0 -0.0001806827406 9.615213926e-16 0.01100743792)
(2.392882138e-05 1.522462542e-15 -0.002471554285 -2.61491521e-16 0.000821388908 -8.851812148e-15 -0.0001800380128 1.523040565e-15 0.01103041826)
(-5.967619137e-05 1.803468287e-15 -0.002557171379 -3.013829351e-16 0.0007911013793 0 -0.000178650595 1.220604112e-15 0.01105333846)
(-0.0001433941794 2.128745652e-15 -0.002636988128 -3.717532158e-16 0.0007605704543 0 -0.0001766801517 1.051150113e-15 0.01107579614)
(-0.0002272195247 1.115338148e-15 -0.002709990873 -4.241125462e-16 0.0007298482266 0 -0.0001738453817 9.895614675e-16 0.01109799482)
(-0.0003109784922 2.559184299e-16 -0.00277577014 -4.14700894e-16 0.000698988486 0 -0.0001704759404 9.308002317e-16 0.01111957123)
(-0.0003937852553 3.074614485e-16 -0.002833444132 -4.121028194e-16 0.0006680377901 0 -0.0001664826379 1.25271735e-15 0.01114075013)
(-0.0004757763688 4.405369293e-16 -0.002882387338 -4.120742416e-16 0.0006370840753 0 -0.0001619899728 1.453360394e-15 0.01116123039)
(-0.0005571070139 -6.326247391e-17 -0.002921655696 -4.115540154e-16 0.0006061493198 -1.617002635e-14 -0.0001569150379 1.812263363e-15 0.01118102855)
(-0.0006377732259 -4.092289356e-16 -0.00295055143 -3.860337655e-16 0.000575293871 -1.605273405e-14 -0.0001513496272 1.601141632e-15 0.01120006422)
(-0.0007176847687 4.3383717e-16 -0.002968423791 -3.729521137e-16 0.0005445306037 0 -0.0001455190087 1.082962311e-15 0.01121819996)
(-0.0007967567283 1.068878104e-15 -0.002974205361 -3.884889118e-16 0.0005139113805 0 -0.0001391648571 6.68915986e-16 0.01123555821)
(-0.0008751660651 1.105763137e-15 -0.002967351465 -4.04253479e-16 0.0004834462375 0 -0.000132618809 2.75340925e-16 0.01125183788)
(-0.0009517278124 1.14490756e-15 -0.002946813407 -4.193056543e-16 0.0004531689347 0 -0.0001256676457 -1.738589143e-16 0.01126733566)
(-0.001026748763 9.38763448e-16 -0.002912095721 -4.355914719e-16 0.000423133938 1.571967109e-14 -0.0001186210757 -5.549428283e-16 0.01128177593)
(-0.00110042738 4.855890768e-16 -0.002862045442 -4.406698302e-16 0.0003933522159 7.84775489e-15 -0.0001111818385 -5.362989374e-16 0.01129531201)
(-0.001172901164 2.676171556e-16 -0.002796042794 -4.365004614e-16 0.0003638599029 0 -0.0001035183347 -1.464557578e-16 0.01130778392)
(-0.00124404661 5.875415645e-16 -0.002713343314 -4.336069478e-16 0.0003346578659 -7.841298269e-15 -9.57216049e-05 3.019740243e-16 0.01131924529)
(-0.001313695871 1.281363044e-15 -0.002613207694 -4.405859615e-16 0.0003057800365 -7.846261297e-15 -8.779492515e-05 3.715902356e-16 0.0113297193)
(-0.001381867533 8.441301154e-16 -0.002495026806 -4.627279507e-16 0.000277229892 0 -7.991251489e-05 2.617793575e-16 0.01133911668)
(-0.001448519512 -3.377101518e-16 -0.002357898476 -4.56398038e-16 0.0002490344257 0 -7.187514962e-05 2.381763847e-16 0.01134760141)
(-0.001514105391 -6.047822365e-16 -0.002201320343 -4.377824749e-16 0.0002211953616 0 -6.390287945e-05 2.374841652e-16 0.01135497725)
(-0.001578193829 -4.68976583e-16 -0.002024463682 -4.226850248e-16 0.0001937206627 0 -5.584070783e-05 2.055676133e-16 0.01136148936)
(-0.001640766448 -4.320327461e-16 -0.001826902245 -4.106149872e-16 0.0001666234543 0 -4.790267388e-05 1.539638138e-16 0.0113669631)
(-0.001701655248 -1.329903929e-16 -0.001607954645 -3.979230371e-16 0.0001399094196 7.975010446e-15 -4.002573231e-05 9.13922141e-17 0.01137162335)
(-0.001761415152 3.279790066e-16 -0.001367174774 -3.941063672e-16 0.0001135933112 -8.011214292e-15 -3.232267469e-05 2.109459932e-16 0.01137533292)
(-0.001820230512 7.111463998e-16 -0.001103932995 -3.955842863e-16 8.766318965e-05 0 -2.471961477e-05 1.022275447e-16 0.01137826086)
(-0.001874207381 4.446059411e-16 -0.0008177965165 -4.029216236e-16 6.21268478e-05 8.094994336e-15 -1.729827205e-05 2.224656148e-17 0.01138034794)
(-0.001911778292 7.76321992e-17 -0.0005081701543 -3.970792837e-16 3.707181966e-05 0 -1.002810186e-05 7.808375881e-17 0.01138172635)
(-0.002006710269 9.686282813e-17 -0.0001732746483 -3.946232099e-16 1.2783588e-05 8.193260473e-15 -3.10861047e-06 -5.4421386e-17 0.01138237822)
(0.000937231847 1.003637421e-14 -9.015619786e-05 -1.880046404e-14 0.001536861869 0 -1.118383597e-05 7.020958277e-15 0.01055155234)
(0.00124022444 7.058924318e-16 -0.0002082644127 -1.515933159e-14 0.001342065518 0 -2.894089203e-05 -7.341308869e-16 0.01055433236)
(0.00120899387 -1.781541709e-15 -0.0003368861067 -5.984591236e-15 0.001279096831 0 -4.545234972e-05 -7.028565722e-15 0.01055995564)
(0.001213433272 -2.203513882e-15 -0.0004658637223 -5.185601016e-15 0.001262675648 0 -6.226866643e-05 -4.01662107e-15 0.01056796281)
(0.001186452544 -4.69421895e-15 -0.0005932458653 -2.634603633e-15 0.001249635909 0 -7.803461601e-05 -2.303220423e-15 0.01057821487)
(0.001149058312 -2.268972495e-15 -0.0007191880627 -1.656765712e-15 0.001235457622 0 -9.267135059e-05 -1.328224023e-15 0.01059070699)
(0.001106540049 3.823001597e-15 -0.0008446449784 -1.179990754e-15 0.001219732124 0 -0.0001069596107 -1.0106259e-15 0.01060531895)
(0.001059090017 5.332251926e-15 -0.0009694335373 -2.130753587e-15 0.001202643676 0 -0.0001205777813 1.29316605e-15 0.01062208301)
(0.001004926021 -8.677167483e-16 -0.001092596206 -2.128861839e-15 0.001184068893 0 -0.0001325669845 4.210517697e-15 0.01064022019)
(0.0009456731631 -2.985962124e-15 -0.001214586463 -1.573129558e-15 0.001163802877 0 -0.0001434122777 2.455464711e-15 0.01065982965)
(0.0008833970962 -1.182301231e-15 -0.001336118426 -1.227742076e-15 0.001142127346 0 -0.0001537617192 1.411506193e-15 0.01068109243)
(0.0008168381653 -1.690884231e-15 -0.001456292237 -1.124445527e-15 0.001119212913 0 -0.000162814018 1.362817607e-16 0.010703504)
(0.0007468129852 -1.981777251e-15 -0.001575134012 -8.160596051e-16 0.001095019272 0 -0.0001708186803 5.623082687e-16 0.0107269419)
(0.0006742524409 -2.320066639e-15 -0.001692731429 -7.038880127e-16 0.00106976958 0 -0.0001780082959 1.481870155e-17 0.01075151741)
(0.0005984853716 -2.39270716e-15 -0.001808109405 -4.375049023e-16 0.001043523382 0 -0.0001837204227 -3.948546704e-16 0.01077658281)
(0.0005203840941 -1.772372745e-16 -0.001921472479 -3.510413693e-16 0.001016346851 0 -0.0001884922506 -7.120365427e-16 0.01080239424)
(0.0004402578721 5.235705766e-16 -0.002032234043 -3.6889653e-16 0.0009883664777 0 -0.000192106979 -8.77938929e-16 0.01082853091)
(0.0003583851322 1.380342678e-15 -0.002140123111 -3.696100332e-16 0.0009596453113 0 -0.0001947383501 -1.085527086e-15 0.01085505309)
(0.0002752607568 -2.204277744e-16 -0.002244599928 -4.627391313e-16 0.0009302925772 0 -0.0001963271907 -1.387102618e-15 0.01088174289)
(0.0001910426137 -1.78023338e-15 -0.002345290523 -3.252629271e-16 0.0009003854566 0 -0.0001970208148 -1.253305849e-15 0.01090854694)
(0.0001061997974 -9.970167576e-16 -0.002441645801 -2.776997351e-16 0.0008700093473 0 -0.0001968557279 -1.286931976e-15 0.01093530626)
(2.097520447e-05 2.9528723e-16 -0.00253314249 -2.238637793e-16 0.0008392492644 0 -0.0001959004884 -9.660950672e-16 0.0109619575)
(-6.430087445e-05 1.443580996e-15 -0.002619235748 -2.759000009e-16 0.0008081789005 0 -0.0001942810112 -4.433739671e-16 0.01098833416)
(-0.0001499164751 9.811592291e-16 -0.002699096903 -3.075488819e-16 0.0007768785877 0 -0.0001918336358 1.644780986e-16 0.01101441557)
(-0.0002356321007 7.805815815e-16 -0.002772077178 -3.199018482e-16 0.0007453791673 -8.56416974e-15 -0.000188676434 7.003081679e-16 0.01103989456)
(-0.0003209391056 -1.600234355e-16 -0.002837466579 -3.365145348e-16 0.0007137553543 0 -0.0001848204659 6.166295928e-16 0.01106495088)
(-0.0004058157053 -7.120136251e-16 -0.002894769059 -2.960268784e-16 0.000682054764 0 -0.0001805611958 4.648173552e-16 0.01108918685)
(-0.0004898982022 -7.199953997e-16 -0.00294288736 -2.769727916e-16 0.0006503334084 0 -0.0001755884264 6.716323627e-16 0.0111128722)
(-0.0005733357556 5.600800504e-18 -0.00298131037 -2.385498589e-16 0.0006186437333 -8.210926235e-15 -0.0001701955327 8.899303517e-16 0.01113562751)
(-0.0006556779556 1.564884848e-15 -0.003008943369 -2.607004502e-16 0.0005870184067 0 -0.0001641347755 9.093510251e-16 0.01115769957)
(-0.0007371855051 2.0049926e-15 -0.003025244329 -3.055794866e-16 0.0005555187774 0 -0.0001576681619 7.51299625e-16 0.01117876445)
(-0.0008176959161 2.068005794e-15 -0.003029173089 -3.433769199e-16 0.0005241538876 0 -0.0001506455083 8.385581013e-16 0.01119890966)
(-0.0008968211311 2.396849311e-15 -0.003020157277 -3.850735707e-16 0.0004929799494 0 -0.0001432926244 9.883732102e-16 0.01121804313)
(-0.0009743854705 2.402096244e-15 -0.002997605715 -4.336492687e-16 0.0004620163934 0 -0.0001358785342 1.222919082e-15 0.01123609459)
(-0.001050586787 1.362739584e-15 -0.00296041406 -4.696582683e-16 0.0004313146709 0 -0.0001280797496 1.465169861e-15 0.01125315991)
(-0.001125957559 -1.922697378e-16 -0.002907970134 -4.718550895e-16 0.0004008785155 0 -0.0001201342407 1.490488469e-15 0.01126896876)
(-0.001199742172 -1.136020405e-15 -0.002839267988 -4.442705067e-16 0.0003707293128 0 -0.0001118336961 1.518966422e-15 0.01128378356)
(-0.001272033375 -4.902300521e-16 -0.002753850537 -4.121689819e-16 0.0003408960286 0 -0.0001034973911 1.425423375e-15 0.01129734432)
(-0.00134255756 5.618750769e-16 -0.002650745995 -4.10484434e-16 0.0003113904918 0 -9.493287772e-05 1.487614238e-15 0.01130986694)
(-0.001411451461 4.078378839e-16 -0.002529487992 -4.173406236e-16 0.0002822448514 0 -8.638747012e-05 1.657963328e-15 0.01132116433)
(-0.001478826857 -2.186024549e-17 -0.002389175254 -4.093488201e-16 0.0002534615311 -7.993767662e-15 -7.77014868e-05 1.589001311e-15 0.01133135942)
(-0.001544723772 5.386268239e-17 -0.002229239522 -4.025369417e-16 0.0002250631344 0 -6.89689704e-05 1.212240476e-15 0.01134039574)
(-0.001609154025 2.993740243e-16 -0.002049128298 -3.993416721e-16 0.0001970481608 0 -6.032153707e-05 9.037177619e-16 0.0113482998)
(-0.001671829224 5.020543061e-16 -0.001848196546 -3.992856104e-16 0.0001694347409 0 -5.171450171e-05 6.433241422e-16 0.01135513444)
(-0.001732882669 -1.673068604e-17 -0.001625990137 -4.026371363e-16 0.0001422279257 8.099210363e-15 -4.329926602e-05 4.169989984e-16 0.01136085672)
(-0.001792779361 -6.928270519e-17 -0.001381837653 -3.880778097e-16 0.0001154382675 0 -3.494336067e-05 4.591822625e-16 0.0113655918)
(-0.001851632901 2.941383672e-16 -0.001115341562 -3.887693584e-16 8.905593871e-05 0 -2.678218799e-05 5.701816326e-16 0.011369254)
(-0.001905586102 -1.429661026e-16 -0.0008259655002 -3.852368771e-16 6.308679587e-05 -8.221062839e-15 -1.87740564e-05 7.165606725e-16 0.01137202579)
(-0.001942593231 2.383517396e-16 -0.0005132742921 -3.753149386e-16 3.761931647e-05 0 -1.101906448e-05 6.577487893e-16 0.01137381582)
(-0.002035368742 4.304367522e-16 -0.0001751145346 -3.814700604e-16 1.29489942e-05 0 -3.528960543e-06 6.365995409e-16 0.01137484619)
(0.0009609653694 2.856986205e-15 -9.369289063e-05 -7.543180221e-15 0.001576487142 0 -1.193320026e-05 1.867157058e-15 0.01042528216)
(0.00127098519 3.770493062e-15 -0.0002162353686 -5.045267166e-15 0.001376287501 -1.505676817e-13 -3.084088529e-05 4.694889903e-15 0.01042814177)
(0.001238186476 2.750637885e-15 -0.0003492531995 -4.471215403e-15 0.001311210353 0 -4.809865038e-05 5.449906642e-16 0.01043429129)
(0.001242243406 -8.378646385e-17 -0.0004824445657 -3.805678154e-15 0.001293978412 0 -6.553050263e-05 -1.818173236e-15 0.0104434626)
(0.001214756292 -1.873056804e-15 -0.0006147961741 -2.579124686e-15 0.001280301487 0 -8.266551911e-05 -6.409547438e-16 0.01045541757)
(0.001177855465 -1.417872826e-15 -0.0007462892292 -1.805750479e-15 0.001265686594 0 -9.924999585e-05 -6.101482241e-17 0.01047015356)
(0.001134493514 -5.083918231e-16 -0.0008764726258 -1.390788235e-15 0.00124982001 0 -0.0001147156387 3.489993879e-16 0.01048725836)
(0.001083556518 -9.606989681e-16 -0.001004636904 -1.211110215e-15 0.001232302941 0 -0.000128356964 3.571133333e-15 0.01050602623)
(0.001027394023 -3.073793252e-16 -0.001131546181 -8.801649262e-16 0.001212927617 -3.226089966e-14 -0.0001408874731 5.246641474e-15 0.01052676012)
(0.000967839275 -8.402106008e-16 -0.00125805879 -8.984397961e-16 0.001192043804 0 -0.0001530203994 3.572249127e-15 0.01054962302)
(0.0009033670841 -1.112234325e-15 -0.001383084427 -5.964720256e-16 0.001169806214 0 -0.0001637362661 2.691387955e-15 0.01057397929)
(0.0008349371849 -7.981689539e-16 -0.001506576064 -5.693969316e-16 0.001146145198 0 -0.0001731777064 2.042999958e-15 0.0105996332)
(0.0007635450158 5.0272846e-17 -0.001628858986 -3.979285972e-16 0.001121307482 0 -0.0001817641088 6.92904016e-16 0.01062669498)
(0.0006879909641 1.333543715e-15 -0.001748794961 -4.955534387e-16 0.001095349381 0 -0.0001886366723 2.929101368e-16 0.01065438039)
(0.0006097353126 8.266310661e-16 -0.00186668388 -5.124654215e-16 0.001068279287 0 -0.0001944065897 -6.113316719e-16 0.01068296754)
(0.0005294790721 6.594216538e-16 -0.001982244958 -5.347625151e-16 0.001040301968 1.073719246e-14 -0.00019907237 -1.409992616e-15 0.01071227276)
(0.0004471586919 5.408734444e-16 -0.002095085872 -5.315860157e-16 0.001011472763 0 -0.0002026595324 -1.240489819e-15 0.01074201019)
(0.0003632234828 7.387170738e-16 -0.002204891155 -5.348354836e-16 0.0009819216623 1.004901899e-14 -0.0002052785336 -1.229486215e-15 0.01077226368)
(0.0002778586119 3.090913882e-17 -0.002311086377 -5.486674989e-16 0.0009517156817 0 -0.0002068551587 -3.652238551e-16 0.01080258465)
(0.000191603675 -5.952445399e-16 -0.002413225845 -4.931664009e-16 0.0009209580651 0 -0.0002074846399 -1.270695787e-15 0.01083319583)
(0.0001046486944 -1.395196891e-16 -0.002510767456 -4.548782526e-16 0.0008897314597 0 -0.000207198948 -1.161931918e-15 0.01086358925)
(1.752499567e-05 -5.859346528e-16 -0.002603160017 -4.435556688e-16 0.0008581190684 9.129668438e-15 -0.0002060818833 -1.235013161e-15 0.01089401856)
(-6.998099893e-05 -1.045162624e-15 -0.002689817688 -3.808924627e-16 0.0008262133558 0 -0.0002041874353 -4.533617843e-16 0.01092400295)
(-0.0001578486862 -8.107633201e-16 -0.00276980729 -3.381872271e-16 0.000794054457 0 -0.0002013247659 -3.337619759e-16 0.01095365928)
(-0.0002456448957 -3.594268335e-17 -0.002842635836 -3.015262044e-16 0.0007617115279 0 -0.0001977022539 -2.489169739e-16 0.01098267736)
(-0.0003326844271 8.783789497e-16 -0.002907572615 -3.144987184e-16 0.0007292365793 -8.587911669e-15 -0.0001933767818 1.364909053e-16 0.01101115279)
(-0.0004189680225 1.244663426e-16 -0.002964015341 -3.379575444e-16 0.0006967192695 1.698495831e-14 -0.0001884759595 -1.41221117e-16 0.0110388944)
(-0.0005045732779 -7.498333407e-16 -0.003011291111 -3.05924464e-16 0.0006641925735 0 -0.0001831546978 -3.03480865e-16 0.01106579596)
(-0.0005895447577 -7.198085385e-16 -0.003048443523 -2.799279727e-16 0.0006317205268 8.338799827e-15 -0.0001772251264 -5.933312647e-16 0.0110918979)
(-0.0006739038446 2.673578858e-17 -0.003074841604 -2.526340572e-16 0.0005993217988 0 -0.0001709203693 -3.186067767e-16 0.01111690223)
(-0.0007573294539 6.517974596e-16 -0.003089405552 -2.641392036e-16 0.000567045209 0 -0.0001639732538 2.08827093e-16 0.01114103591)
(-0.0008397879082 3.766633986e-16 -0.003091683615 -2.707860971e-16 0.0005349168471 0 -0.0001567781322 5.564537328e-16 0.01116392459)
(-0.0009201860872 -4.221360284e-17 -0.003080657488 -2.706646034e-16 0.0005029755978 0 -0.0001491471362 1.045230033e-15 0.01118590349)
(-0.000998999079 -3.067037957e-16 -0.003055839258 -2.559097028e-16 0.0004712864814 -8.125629012e-15 -0.0001413775623 1.74182281e-15 0.01120661942)
(-0.001076581961 1.154790967e-16 -0.003016066834 -2.434341144e-16 0.0004398561205 -8.106553925e-15 -0.0001331652081 2.081992892e-15 0.01122620756)
(-0.001152837884 3.026940893e-16 -0.002960737512 -2.499762936e-16 0.0004087228925 -8.09409406e-15 -0.000124683911 2.165739383e-15 0.01124452405)
(-0.001227572459 4.644647169e-16 -0.002889197232 -2.46821331e-16 0.0003778926009 -8.087841374e-15 -0.0001161059817 1.964548818e-15 0.01126157994)
(-0.001300647504 6.670927019e-16 -0.002800595825 -2.596429863e-16 0.0003474032894 0 -0.0001073152966 1.766552512e-15 0.01127741478)
(-0.001372066227 4.772340787e-16 -0.002694376662 -2.617830444e-16 0.0003172613039 -8.092553584e-15 -9.853334273e-05 1.977140689e-15 0.01129188258)
(-0.001441770404 4.99961214e-16 -0.00256964687 -2.66074658e-16 0.0002874972054 -8.102913004e-15 -8.95652026e-05 2.032230301e-15 0.01130517646)
(-0.001510208931 1.249850344e-15 -0.002425917903 -2.705425773e-16 0.0002581153432 -8.118259315e-15 -8.063882846e-05 1.798124027e-15 0.01131703414)
(-0.001576810814 1.855949097e-15 -0.002262359881 -2.990293363e-16 0.0002291260058 0 -7.159483581e-05 1.362614612e-15 0.01132774022)
(-0.00164162432 1.616190194e-15 -0.002078567292 -3.208614137e-16 0.0002005490408 0 -6.265673768e-05 1.081553361e-15 0.01133705514)
(-0.001704516048 1.390002208e-15 -0.001873854889 -3.390032776e-16 0.0001723895328 0 -5.375684242e-05 9.405286926e-16 0.01134520899)
(-0.001765658106 5.519121622e-16 -0.001647791358 -3.524286856e-16 0.0001446669977 0 -4.501653343e-05 9.0512043e-16 0.01135203875)
(-0.001825631778 -2.73076308e-16 -0.001399751358 -3.449509363e-16 0.0001173787506 0 -3.636177796e-05 7.490250918e-16 0.01135770328)
(-0.001884286006 -3.093238228e-16 -0.001129360417 -3.347640322e-16 9.052497078e-05 -8.303972602e-15 -2.790473201e-05 8.084460132e-16 0.01136212377)
(-0.001937830096 9.596955549e-17 -0.0008361453006 -3.275378636e-16 6.410640943e-05 0 -1.966296599e-05 7.668618902e-16 0.01136542015)
(-0.001974469353 4.043885249e-16 -0.0005197198855 -3.28813718e-16 3.821869864e-05 0 -1.174224593e-05 6.375175049e-16 0.01136756645)
(-0.002067417876 1.887216548e-16 -0.000177530883 -3.294185535e-16 1.31462168e-05 -4.225222491e-15 -3.951948237e-06 8.766676768e-16 0.01136866176)
(0.0009846820862 2.883970587e-15 -9.732458418e-05 -6.407775964e-15 0.001615611524 0 -1.211533039e-05 1.121919902e-15 0.01029709166)
(0.001302215332 5.287091054e-15 -0.0002249070687 -4.696853593e-15 0.001410326916 0 -3.145705563e-05 2.852258872e-15 0.01030045607)
(0.001268759875 8.998788943e-15 -0.0003639342619 -5.237226985e-15 0.001343525226 0 -4.967434024e-05 3.071232972e-15 0.01030772724)
(0.001273880762 -7.247930076e-16 -0.0005032825891 -6.905765307e-15 0.001325937532 0 -6.827327257e-05 2.662112364e-15 0.01031863177)
(0.001246459841 -7.673090252e-15 -0.0006411547777 -3.122870837e-15 0.001312266897 0 -8.604133013e-05 2.401281664e-16 0.01033269048)
(0.001207115282 -4.018132297e-15 -0.000777222031 -1.697398329e-15 0.001297542132 0 -0.000102478291 7.18005683e-16 0.01034921709)
(0.001160204335 -3.201603869e-15 -0.0009111085039 -9.968765066e-16 0.001281010685 0 -0.0001171699292 5.704826995e-16 0.01036808226)
(0.0011083022 -3.771007084e-15 -0.001043973733 -4.606882858e-16 0.001262613484 0 -0.0001311350189 2.190135939e-15 0.01038952018)
(0.001052223694 -5.729689183e-16 -0.001176373237 5.599200014e-17 0.001242676893 0 -0.0001447648074 2.892513763e-15 0.010413627)
(0.0009902492101 1.938410895e-15 -0.001306953782 -2.244287806e-16 0.001221274912 -3.013968149e-14 -0.0001567722146 1.847645801e-15 0.01043954077)
(0.0009234717741 1.822504245e-15 -0.001435754652 -3.080141997e-16 0.00119827364 0 -0.0001673488266 -5.312167068e-16 0.01046705965)
(0.0008533810116 2.39551845e-15 -0.001563288435 -4.754619288e-16 0.00117392308 0 -0.0001770517248 -9.375918236e-16 0.0104963278)
(0.0007786932933 1.574548164e-15 -0.00168829033 -6.107464938e-16 0.001148325722 3.733757669e-14 -0.0001848414513 -2.30943984e-15 0.01052660194)
(0.0007008419784 4.940741964e-16 -0.001811242738 -6.247502119e-16 0.001121455949 0 -0.000191476624 -1.947251365e-15 0.01055795879)
(0.0006208376625 1.275784602e-15 -0.001932310143 -5.92422993e-16 0.001093561851 0 -0.0001973198617 -1.571669505e-15 0.01059048722)
(0.0005383899903 1.142048815e-15 -0.002050506483 -6.921744317e-16 0.001064709578 0 -0.0002017733771 -1.321567562e-15 0.01062355973)
(0.0004540513116 1.343812309e-16 -0.00216581422 -6.581208247e-16 0.001035028989 0 -0.0002052149017 -7.326079107e-16 0.0106574444)
(0.0003678744158 -6.490959664e-16 -0.002277519962 -6.403364995e-16 0.001004606185 0 -0.0002074028191 -6.536949411e-16 0.01069142941)
(0.0002803350104 -2.285204252e-17 -0.002385428155 -5.378309474e-16 0.0009735294392 -9.923223247e-15 -0.0002086403084 1.93655813e-17 0.01072583546)
(0.0001918296533 4.467495793e-17 -0.00248891831 -5.788087918e-16 0.0009418932611 0 -0.0002088619663 3.478031976e-17 0.01076004304)
(0.0001028143871 -1.058888552e-15 -0.002587561935 -5.012291581e-16 0.000909785157 0 -0.0002082196398 1.627369186e-16 0.01079436772)
(1.359649956e-05 -1.482926547e-15 -0.002680786408 -4.481998047e-16 0.0008773015157 -9.271850505e-15 -0.0002067752164 2.16627987e-16 0.01082826572)
(-7.617776212e-05 -7.878797422e-16 -0.002767748899 -3.579236714e-16 0.000844520895 0 -0.0002043541793 -2.07354809e-16 0.0108619615)
(-0.0001663922535 4.405418319e-16 -0.002847943496 -3.63142477e-16 0.0008114853231 0 -0.0002011754444 -3.047581346e-16 0.01089488117)
(-0.0002561998799 -4.542640693e-16 -0.002920684119 -3.622908897e-16 0.0007782594631 0 -0.0001972719456 -3.190462627e-16 0.01092743253)
(-0.0003452550927 -3.91832677e-16 -0.002985502939 -3.151379832e-16 0.0007449225737 0 -0.0001929127807 -9.864240973e-18 0.01095910569)
(-0.0004332543547 4.671271031e-16 -0.003041367365 -3.158473341e-16 0.0007115383187 -8.62473787e-15 -0.0001878463849 1.368488272e-16 0.01099023524)
(-0.0005206768776 5.132506944e-16 -0.003087770886 -3.231997771e-16 0.0006781802677 0 -0.000182333689 -2.408871989e-16 0.01102032351)
(-0.0006074233137 7.943088744e-18 -0.003123627096 -3.256383713e-16 0.0006448668602 -8.468665199e-15 -0.0001761423932 -5.423927054e-16 0.01104955532)
(-0.0006933164648 -7.317152827e-16 -0.003148373344 -3.068559095e-16 0.0006116603061 8.407236156e-15 -0.000169493328 -1.084691118e-15 0.01107764736)