/*--------------------------------*- C++ -*----------------------------------*\
  =========                 |
  \\      /  F ield         | OpenFOAM: The Open Source CFD Toolbox
   \\    /   O peration     | Website:  https://openfoam.org
    \\  /    A nd           | Version:  7
     \\/     M anipulation  |
\*---------------------------------------------------------------------------*/
FoamFile
{
    version     2.0;
    format      ascii;
    class       volVectorField;
    location    "0.0012";
    object      grad(generalizedNewtonian:nu);
}
// * * * * * * * * * * * * * * * * * * * * * * * * * * * * * * * * * * * * * //

dimensions      [0 1 -1 0 0 0 0];

internalField   nonuniform List<vector> 
1167
(
(-99250.73955 -2.2053486e-07 584149.8701)
(-215957.8501 0 582233.8262)
(-348384.5406 4.647337568e-08 578139.446)
(-479640.9467 0 572406.3702)
(-599666.3338 0 565265.5236)
(-713470.0432 0 556548.6094)
(-818499.4179 9.987356081e-09 546556.8418)
(-913709.8354 0 534953.5348)
(-999471.2167 -1.614775551e-08 522263.079)
(-1076011.615 -7.42733373e-09 508710.4614)
(-1142534.815 0 494261.5027)
(-1199380.169 0 479020.205)
(-1247303.641 0 463450.4168)
(-1285573.698 0 447119.2863)
(-1315460.032 0 430606.0723)
(-1337205.323 0 413900.9801)
(-1351320.892 0 397009.1167)
(-1358514.19 0 380311.6896)
(-1359178.889 4.890767724e-09 363473.8208)
(-1354030.228 0 347042.145)
(-1343708.948 4.662950627e-09 330659.335)
(-1328754.344 0 314799.9922)
(-1309885 2.243978923e-09 299191.294)
(-1287515.362 0 284137.7168)
(-1262245.674 0 269519.9053)
(-1234548.466 0 255394.5406)
(-1204841.01 0 241886.0185)
(-1173843.179 0 228826.6169)
(-1141515.184 0 216476.03)
(-1108549.574 0 204512.4523)
(-1074913.724 1.029538895e-09 193287.2606)
(-1041190.931 0 182495.58)
(-1007318.609 0 172337.3008)
(-973715.11 0 162692.0926)
(-940604.0059 0 153557.6829)
(-907916.6485 0 144990.9668)
(-96972.09962 0 566064.4019)
(-210506.6407 0 564459.3738)
(-339741.5255 0 560792.4975)
(-468539.6804 -1.732947444e-08 555375.098)
(-585728.0749 0 548451.5627)
(-695871.8032 0 539871.541)
(-797361.4228 2.028579069e-08 529734.8078)
(-890194.4278 -9.03829501e-09 518599.353)
(-974061.1303 0 506478.3103)
(-1047856.107 0 493232.4227)
(-1112176.517 0 479161.6453)
(-1167631.255 0 464643.1888)
(-1213320.049 0 449323.3105)
(-1250361.152 -5.929912631e-09 433620.2676)
(-1279161.91 5.675625958e-09 417745.0691)
(-1299757.576 0 401407.8992)
(-1313158.553 0 385258.325)
(-1319566.813 0 368789.9386)
(-1319819.531 -4.96693467e-09 352702.3485)
(-1314441.023 2.421779914e-09 336507.5679)
(-1304063.467 0 320852.7495)
(-1289341.839 2.320449444e-09 305258.497)
(-1270744.398 0 290309.7809)
(-1248954.086 0 275561.0809)
(-1224219.023 0 261485.3433)
(-1197312.314 0 247729.105)
(-1168469.824 0 234656.5679)
(-1138280.762 0 222043.8583)
(-1106954.963 2.119437694e-09 209998.8328)
(-1074812.462 1.052031978e-09 198539.8273)
(-1042372.662 0 187543.2073)
(-1009556.49 0 177212.8119)
(-976925.7006 0 167256.9885)
(-944397.7653 0 157987.6011)
(-912399.175 -1.030204365e-09 149114.589)
(-880789.1333 -1.028620929e-09 140807.1118)
(-849845.6914 0 132931.6839)
(-819653.7429 1.027774647e-09 125507.7712)
(-790206.972 1.028425161e-09 118550.3693)
(-761717.5532 0 111942.8292)
(-734043.0492 0 105811.5953)
(-707376.8821 0 99950.23953)
(-681570.5181 0 94536.76336)
(-656780.9825 0 89366.52369)
(-632916.3171 -5.226502846e-10 84586.34146)
(-610048.192 5.250229399e-10 80040.66862)
(-588047.9186 5.276464511e-10 75814.69245)
(-566856.0908 0 71812.84115)
(-547091.3198 0 68080.49442)
(-531750.3088 -2.684767592e-10 64545.68895)
(-95097.45877 0 549961.004)
(-205857.5596 0 548324.6835)
(-331836.5011 0 544692.8672)
(-457100.9647 0 539349.5763)
(-570942.9957 0 532238.6571)
(-678247.327 0 523861.1609)
(-777822.9731 0 514291.5784)
(-868431.018 0 503611.5948)
(-949174.108 8.327315098e-09 491561.4497)
(-1020868.298 0 478727.2966)
(-1083769.909 -7.125827112e-09 465331.6566)
(-1136879.698 0 451041.1986)
(-1181128.281 0 436182.9121)
(-1216961.565 0 421091.9739)
(-1244138.047 0 405324.6183)
(-1263960.123 0 389666.6223)
(-1276364.491 0 373676.6249)
(-1282329.699 0 357869.416)
(-1282181.103 0 342057.5379)
(-1276668.519 0 326530.3155)
(-1266346.088 0 311188.5461)
(-1251746.487 0 296258.169)
(-1233570.921 0 281616.3266)
(-1212074.922 0 267495.8158)
(-1188008.657 2.245045712e-09 253668.6165)
(-1161658.338 0 240520.9172)
(-1133729.297 0 227675.122)
(-1104294.429 0 215557.9094)
(-1073971.047 1.076222523e-09 203796.0755)
(-1042793.526 0 192720.5445)
(-1011297.041 0 182083.016)
(-979521.517 0 172010.9154)
(-947790.9159 0 162474.0051)
(-916465.0842 0 153395.0738)
(-885377.0935 0 144898.6616)
(-854908.2412 0 136750.0676)
(-824937.1247 0 129185.0173)
(-795784.4386 0 121950.3919)
(-767314.1863 0 115222.3037)
(-739762.2884 0 108835.7237)
(-713019.2685 1.047759115e-09 102859.2535)
(-687171.9817 0 97232.15838)
(-662282.8937 0 91929.49149)
(-638274.72 0 86977.0587)
(-615260.9792 -5.307898504e-10 82287.92942)
(-593117.5456 0 77930.53094)
(-571877.0847 0 73783.76014)
(-551363.8196 5.387755742e-10 69946.13546)
(-532260.9681 0 66283.20346)
(-517536.2194 0 62896.26392)
(-92809.10591 0 534542.9907)
(-200600.7697 7.89408287e-08 532848.8713)
(-323654.9851 0 529147.6666)
(-446091.758 0 524093.4223)
(-557511.851 0 517553.5979)
(-662636.5258 0 509566.0543)
(-759221.3646 0 500228.467)
(-846593.2847 0 489416.2851)
(-925500.3894 8.457001282e-09 477881.5779)
(-995731.9308 0 465650.284)
(-1056113.799 0 452364.1333)
(-1107523.768 6.793169998e-09 438391.1684)
(-1150425.823 0 424104.0141)
(-1184315.404 0 408996.5973)
(-1210682.596 0 393876.0458)
(-1229467.943 -2.81469058e-09 378520.4686)
(-1241235.722 0 363033.0262)
(-1246687.76 -2.634290035e-09 347688.1745)
(-1246239.698 0 332256.503)
(-1240592.273 0 317215.7565)
(-1230289.298 0 302216.1993)
(-1215906.389 -2.393287803e-09 287737.9222)
(-1197986.422 0 273455.0151)
(-1176909.982 0 259687.6508)
(-1153392.038 0 246300.7472)
(-1127753.776 2.251269517e-09 233445.0083)
(-1100433.047 -2.226252455e-09 221107.6272)
(-1071950.064 0 209224.7849)
(-1042340.259 -1.092983171e-09 197956.7026)
(-1012206.962 0 187068.1498)
(-981541.3475 0 176857.1693)
(-950869.8284 0 166993.7655)
(-920155.8189 0 157801.3465)
(-889798.2223 1.065042446e-09 148997.2516)
(-859702.108 0 140725.7126)
(-830116.3716 0 132894.6405)
(-801206.835 1.060089545e-09 125490.812)
(-772910.493 0 118560.0085)
(-745466.1384 5.303535917e-10 111960.8416)
(-718749.7727 1.062065013e-09 105844.2565)
(-692951.2269 1.064076485e-09 99983.22455)
(-667939.8473 0 94575.23513)
(-643872.1395 0 89405.77576)
(-620664.9237 0 84621.22228)
(-598394.5871 0 80073.00422)
(-576977.6829 0 75839.55011)
(-556419.0184 0 71832.19906)
(-536576.3361 0 68089.14474)
(-518100.0367 -2.751839761e-10 64559.09673)
(-503783.7518 2.769041812e-10 61252.91394)
(-90847.72632 0 521322.4532)
(-195871.3079 0 519804.4009)
(-316448.1158 0 516301.8851)
(-436543.5635 0 511294.1508)
(-544850.2959 0 504723.3596)
(-646649.4556 0 496528.988)
(-740422.318 0 487118.0069)
(-826269.5819 0 476928.964)
(-903507.2614 8.58870748e-09 465872.6721)
(-970907.5275 7.900936665e-09 453553.7225)
(-1029431.058 -7.34950508e-09 440481.754)
(-1079515.076 0 426972.439)
(-1120311.677 -6.52521447e-09 412623.3092)
(-1153292.508 0 398085.8815)
(-1178724.13 0 383380.9601)
(-1196518.22 0 368228.9298)
(-1207691.659 0 353298.3436)
(-1212476.492 0 338049.5912)
(-1211741.096 2.601313435e-09 323222.2476)
(-1205898.483 0 308275.3426)
(-1195617.481 0 293873.3168)
(-1181418.249 2.430559979e-09 279525.574)
(-1163704.453 0 265783.6445)
(-1143156.353 0 252187.5579)
(-1120155.356 0 239307.0231)
(-1095288.825 0 226678.6938)
(-1068714.821 1.130461642e-09 214754.6911)
(-1040987.637 0 203173.3238)
(-1012227.414 1.110004885e-09 192198.6329)
(-982903.3497 -1.101953257e-09 181688.042)
(-953224.3746 0 171688.2246)
(-923373.9291 0 162238.1949)
(-893750.081 0 153206.2663)
(-864230.5821 0 144766.0686)
(-835185.2088 -1.079089874e-09 136646.6346)
(-806524.4337 0 129116.2098)
(-778557.1697 -1.076598986e-09 121906.154)
(-751174.8894 0 115192.6643)
(-724607.3104 0 108820.3685)
(-698764.151 0 102850.2082)
(-673730.5437 0 97230.07585)
(-649587.8677 0 91928.52418)
(-626255.1527 0 86978.70246)
(-603850.9203 0 82287.29273)
(-582263.5869 5.474512138e-10 77929.55187)
(-561564.0135 0 73778.43185)
(-541643.9604 0 69938.76073)
(-522454.9799 -2.778438038e-10 66269.15167)
(-504576.9504 -2.794695892e-10 62887.48462)
(-490721.431 2.812165841e-10 59641.21563)
(-89060.3221 0 510138.675)
(-191414.5286 4.070938219e-08 508511.7539)
(-308893.4306 0 504935.459)
(-425882.759 1.843448608e-08 499677.1139)
(-531389.5999 0 492914.0505)
(-631032.6389 0 485123.8723)
(-723451.8791 0 476278.9839)
(-807109.8404 0 466326.4483)
(-881238.3374 0 454919.6246)
(-946801.6265 0 442768.0535)
(-1003953.934 0 430076.0461)
(-1051812.053 0 416474.511)
(-1091611.717 0 402461.4494)
(-1123658.132 0 388350.5453)
(-1147571.898 -3.018765746e-09 373537.9211)
(-1164720.999 0 358856.1105)
(-1175026.336 0 343887.8999)
(-1179500.97 0 329116.8623)
(-1178442.59 -2.641825299e-09 314389.9751)
(-1172538.743 2.576204389e-09 299915.3727)
(-1162340.578 0 285693.1716)
(-1148294.873 0 271795.8912)
(-1130917.704 0 258232.4664)
(-1110759.544 0 245145.7366)
(-1088432.438 2.35157813e-09 232448.2048)
(-1064075.354 0 220310.4372)
(-1038301.619 -1.148067021e-09 208528.9841)
(-1011217.221 0 197393.148)
(-983391.7439 0 186576.81)
(-954874.0309 0 176452.4996)
(-926149.8128 -1.112243334e-09 166663.3429)
(-897234.6902 0 157515.7057)
(-868504.9801 0 148761.5371)
(-839907.7361 -1.0984739e-09 140520.8256)
(-811678.2703 0 132723.9041)
(-784016.4599 0 125341.1096)
(-756850.3477 0 118432.5995)
(-730428.8408 0 111847.2924)
(-704645.7089 -1.094002554e-09 105744.9478)
(-679691.4922 -5.477015032e-10 99892.62295)
(-655450.2223 -1.097477618e-09 94496.10133)
(-632079.0921 0 89330.33526)
(-609504.8489 5.517652195e-10 84552.47131)
(-587804.4695 0 80006.4451)
(-566906.8673 0 75777.59701)
(-546855.4017 0 71772.20834)
(-527570.7173 0 68033.26612)
(-508983.2557 -2.821708373e-10 64504.33662)
(-491666.6748 0 61203.28845)
(-478235.4148 0 58078.90084)
(-86896.03446 0 499963.3793)
(-186536.4223 0 498266.5648)
(-301329.3551 0 494757.7312)
(-415889.3884 0 489953.8063)
(-519558.0304 1.497147957e-08 483767.2552)
(-617244.9096 0 476241.5695)
(-706618.7593 1.09576894e-08 467270.2204)
(-787144.2949 0 456771.4163)
(-859619.9105 -8.858304839e-09 445570.4563)
(-923778.5104 0 433701.7864)
(-978600.1411 0 420796.2419)
(-1025161.247 0 407341.0683)
(-1063936.537 0 393701.7552)
(-1094191.788 3.203135722e-09 379273.4879)
(-1117369.405 0 364829.5818)
(-1133654.15 2.948253921e-09 350219.1822)
(-1143475.558 -2.847005773e-09 335467.7128)
(-1147572.241 2.759292968e-09 320973.6023)
(-1146288.178 0 306352.349)
(-1140363.212 0 292241.3189)
(-1130193.548 -2.557992539e-09 278111.7146)
(-1116322.066 0 264567.4512)
(-1099344.769 0 251148.2973)
(-1079707.652 0 238410.6433)
(-1057898.697 0 225925.2224)
(-1034186.314 -1.179048636e-09 214056.706)
(-1009082.706 0 202573.4135)
(-982772.3699 0 191639.6997)
(-955666.9173 0 181199.2166)
(-928084.6028 1.136543292e-09 171231.7053)
(-900127.2599 -1.129564957e-09 161829.175)
(-872219.8222 1.123805535e-09 152823.1284)
(-844278.1734 0 144416.8832)
(-816661.0815 0 136319.0241)
(-789309.3347 0 128816.2559)
(-762522.8869 0 121623.2926)
(-736219.7227 5.551965779e-10 114929.7491)
(-710624.9159 0 108570.7831)
(-685667.7978 0 102616.8854)
(-661443.9849 0 97007.74646)
(-638016.2147 5.572846427e-10 91719.78386)
(-615339.6903 0 86779.00401)
(-593528.211 0 82098.84775)
(-572474.8862 0 77748.74978)
(-552260.8309 0 73607.17936)
(-532816.6505 5.671988235e-10 69774.36119)
(-514153.7124 0 66112.77103)
(-496135.0145 0 62736.30223)
(-479346.54 -2.88242069e-10 59501.63076)
(-466430.7056 0 56512.77482)
(-84997.02486 0 493419.2436)
(-182254.0232 0 491825.7336)
(-294940.4232 0 488547.1074)
(-407282.1837 1.901314063e-08 483706.8998)
(-507884.5425 0 477204.5774)
(-602295.9921 1.279097167e-08 469008.6736)
(-688944.5912 0 459541.6335)
(-768028.2618 0 449335.2131)
(-838923.4014 0 438280.0785)
(-900496.7079 0 425998.1878)
(-953797.4851 0 413059.4736)
(-999316.3981 0 399836.1621)
(-1036175.822 -1.025227593e-08 385821.2299)
(-1065604.234 0 371546.9337)
(-1088042.166 0 357245.6921)
(-1103429.792 0 342502.313)
(-1112849.39 0 328076.2485)
(-1116413.36 2.802265247e-09 313401.662)
(-1115044.587 -2.724751627e-09 299154.2386)
(-1109022.532 0 284932.0191)
(-1098956.025 0 271166.2711)
(-1085348.179 0 257586.4045)
(-1068730.573 0 244576.1776)
(-1049639.563 -1.230192499e-09 231848.5734)
(-1028323.472 1.212696831e-09 219744.7414)
(-1005340.697 -1.197410734e-09 207942.4044)
(-980862.9177 0 196830.6618)
(-955414.192 0 186004.2613)
(-929104.7203 0 175894.1255)
(-902381.2701 -1.154243426e-09 166115.1089)
(-875312.7904 0 156971.6306)
(-848253.0281 0 148227.8013)
(-821188.0261 0 139996.951)
(-794352.6305 1.132954759e-09 132212.5516)
(-767942.3923 0 124844.3601)
(-741919.3782 0 117949.8568)
(-716527.2634 -1.127686037e-09 111382.6149)
(-691677.3915 0 105295.3121)
(-667564.9313 -5.641715297e-10 99462.8936)
(-644085.9958 0 94087.72062)
(-621400.1229 -5.65963602e-10 88933.05521)
(-599443.9324 0 84178.2093)
(-578299.8301 0 79643.7235)
(-557901.1787 0 75435.7509)
(-538301.099 -5.734290093e-10 71441.23912)
(-519457.6209 -2.880160914e-10 67720.31995)
(-501362.1674 2.894552923e-10 64199.87244)
(-483893.089 2.910281193e-10 60912.81816)
(-467607.6107 0 57806.37175)
(-455044.9088 2.945609456e-10 54899.58918)
(-83140.20226 -2.495562923e-07 490102.4427)
(-178100.8609 0 488237.5067)
(-287860.2364 -2.629453531e-08 484716.3796)
(-396972.755 0 479219.954)
(-494727.5228 0 472117.4846)
(-586973.9498 0 463916.0432)
(-672351.1068 -1.130164888e-08 454676.8458)
(-749427.105 0 444361.0192)
(-817438.9557 0 432619.1969)
(-877389.0507 0 420169.7892)
(-929603.1119 0 407332.6491)
(-973164.0781 -3.669437852e-09 393646.6011)
(-1008949.233 3.470646884e-09 379471.425)
(-1037616.716 0 365302.2062)
(-1058762.069 3.162012896e-09 350531.5094)
(-1073726.883 0 335947.0098)
(-1082532.018 0 321254.0091)
(-1085895.496 0 306709.2702)
(-1084409.676 0 292411.1441)
(-1078405.984 0 278255.2304)
(-1068501.988 0 264543.6299)
(-1055222.259 2.585544262e-09 251078.3872)
(-1039072.573 0 238184.1384)
(-1020478.243 0 225632.3995)
(-999784.0192 0 213640.6479)
(-977451.9691 1.216058715e-09 202096.3742)
(-953719.9543 -1.202545355e-09 191072.201)
(-928962.4312 0 180583.7645)
(-903565.8974 0 170557.151)
(-877596.0142 0 161120.67)
(-851489.2302 0 152082.7223)
(-825198.7519 -1.159081546e-09 143658.6387)
(-799074.6864 0 135551.1972)
(-773084.0124 -1.15059893e-09 128051.7151)
(-747521.4498 -1.147897874e-09 120856.1188)
(-722330.5252 -1.146133542e-09 114180.7166)
(-697732.9812 -5.726240772e-10 107830.284)
(-673678.4408 0 101902.6855)
(-650284.0561 0 96310.38554)
(-627561.8411 5.736911578e-10 91052.78733)
(-605537.9423 0 86133.10131)
(-584311.3384 0 81484.79551)
(-563781.3442 0 77157.99216)
(-544033.5939 0 73047.95079)
(-525007.0674 0 69238.35894)
(-506751.5999 0 65606.28625)
(-489190.1191 2.939631497e-10 62251.08076)
(-472245.0056 0 59041.85787)
(-456454.7159 0 56081.42882)
(-444248.7259 2.991483164e-10 53242.70957)
(-80673.94363 0 488205.6327)
(-173141.78 4.330521e-08 486099.6374)
(-280157.0281 -2.670403658e-08 482512.4842)
(-386617.2725 0 477056.2591)
(-482495.596 -1.568191012e-08 470295.7359)
(-572876.3872 0 462168.3486)
(-655383.1097 0 452477.5306)
(-729465.3554 -1.022769557e-08 441230.0834)
(-795908.6388 0 429275.2341)
(-854717.3957 0 416798.7957)
(-904855.4936 0 403350.7636)
(-946964.7866 0 389215.7423)
(-981945.2765 0 374991.0775)
(-1009159.909 0 360182.388)
(-1029751.64 0 345318.4649)
(-1044181.593 0 330540.3309)
(-1052579.062 0 315544.8669)
(-1055840.311 0 301046.8)
(-1054156.169 0 286420.1484)
(-1048279.145 0 272385.6776)
(-1038590.241 -2.679375067e-09 258439.4523)
(-1025709.059 0 245175.4425)
(-1010060.881 0 232138.5987)
(-991993.5665 0 219810.357)
(-971995.1693 0 207761.7225)
(-950312.7589 0 196463.3233)
(-927420.1872 0 185455.907)
(-903484.0106 0 175207.3019)
(-878914.8857 0 165304.7966)
(-853832.6325 0 156064.8595)
(-828570.0942 0 147241.2516)
(-803152.1928 -1.177132648e-09 138958.8623)
(-777821.2363 0 131132.0168)
(-752735.2838 0 123746.2776)
(-727928.725 0 116838.9508)
(-703625.9128 0 110281.395)
(-679756.5483 -5.815419106e-10 104202.7319)
(-656522.4391 0 98398.51419)
(-633830.2966 0 93052.92207)
(-611846.2895 5.826256095e-10 87925.02056)
(-590515.6098 0 83217.68071)
(-569929.9131 0 78714.23896)
(-550027.5826 0 74556.4998)
(-530866.1348 0 70596.55582)
(-512412.7087 0 66925.53371)
(-494696.7318 0 63440.56834)
(-477654.7552 2.985412219e-10 60201.55154)
(-461196.5218 0 57128.37847)
(-445865.6553 0 54270.87081)
(-434006.5978 -3.038071405e-10 51546.75991)
(-78327.02941 1.286949018e-07 490381.0804)
(-168687.0415 0 488262.8033)
(-273274.4 0 484963.6737)
(-377274.0722 1.991535589e-08 479381.6632)
(-470374.9642 0 472111.1404)
(-557343.639 0 463044.3572)
(-636936.0636 0 452408.5148)
(-709542.6952 0 441046.4147)
(-774676.1838 9.423153366e-09 428941.2002)
(-831142.6719 -8.668561376e-09 415656.3882)
(-879499.7397 0 401488.6416)
(-920719.6344 3.784620612e-09 387142.5499)
(-954222.9684 0 372209.1227)
(-980660.9146 -3.407383208e-09 356913.5742)
(-1000800.284 0 341836.1108)
(-1014395.834 0 326364.4759)
(-1022687.808 3.028544685e-09 311276.2221)
(-1025653.189 2.935238885e-09 296209.2705)
(-1024043.563 0 281518.2916)
(-1018335.43 -2.783154737e-09 267125.2364)
(-1009012.03 0 253155.9763)
(-996613.0095 -2.666703866e-09 239680.2543)
(-981505.3406 0 226675.0851)
(-964088.9919 0 214210.1592)
(-944780.593 0 202288.2234)
(-923888.063 0 190899.8757)
(-901736.6921 0 180116.5467)
(-878732.3767 0 169824.2676)
(-854964.9296 -1.217848703e-09 160172.0953)
(-830857.7945 0 150957.0846)
(-806399.9341 0 142390.2187)
(-781931.7889 0 134179.5628)
(-757444.4955 -5.952676718e-10 126607.9348)
(-733234.5939 0 119349.3085)
(-709266.7114 0 112659.3433)
(-685759.725 0 106289.1056)
(-662684.1894 0 100382.7015)
(-640180.8068 -5.905689158e-10 94803.61359)
(-618213.7899 -5.909427072e-10 89590.53981)
(-596887.9442 0 84705.11596)
(-576259.9137 0 80114.93873)
(-556268.0496 0 75835.21759)
(-536995.2787 0 71789.82033)
(-518383.2464 0 68032.9608)
(-500494.8915 -3.003197373e-10 64467.04805)
(-483287.9254 0 61165.69233)
(-466744.3278 0 58020.56881)
(-450760.6037 0 55110.83214)
(-435849.7316 0 52340.1095)
(-424366.0111 -3.085385091e-10 49759.20658)
(-75908.40782 0 497666.7038)
(-164391.0487 0 495097.7453)
(-265968.8424 0 491452.2576)
(-366183.2133 2.022551017e-08 484971.2713)
(-456161.405 1.617416143e-08 476632.3736)
(-540629.2064 1.360658571e-08 466895.4908)
(-618818.3824 1.183793736e-08 456265.2031)
(-689740.9922 0 444574.7393)
(-752112.0477 0 431400.8176)
(-806507.5534 4.401781148e-09 417161.0611)
(-853888.9618 4.094566794e-09 402628.7828)
(-893624.0714 0 387479.2765)
(-925853.4648 -3.635336829e-09 371671.6097)
(-951772.5127 -3.460448515e-09 356003.5644)
(-970912.704 0 339982.2318)
(-984251.5725 -3.185091669e-09 324085.8945)
(-992308.9245 0 308464.2258)
(-995258.9931 2.980951193e-09 292841.3316)
(-993825.2336 -2.898494931e-09 277857.9361)
(-988341.4548 0 262942.5777)
(-979499.7357 0 248833.1654)
(-967617.5834 -2.708234112e-09 234944.1161)
(-953135.6684 0 221881.9657)
(-936460.9439 0 209128.449)
(-917912.1129 0 197224.7002)
(-897904.0129 0 185668.9436)
(-876656.511 0 174948.8163)
(-854546.1587 0 164630.041)
(-831737.1954 -1.236815022e-09 155050.9476)
(-808540.4 -1.227843553e-09 145931.4747)
(-785016.3747 0 137427.183)
(-761422.7818 0 129408.957)
(-737854.7849 -6.045381471e-10 121896.3925)
(-714448.0155 0 114885.1761)
(-691392.603 0 108276.8274)
(-668640.9782 -6.002600692e-10 102159.6111)
(-646402.7242 -5.997963684e-10 96361.34191)
(-624593.1005 0 91025.5994)
(-603387.9173 0 85936.46182)
(-582741.4017 0 81286.97534)
(-562758.5853 0 76833.65936)
(-543382.7647 0 72757.28317)
(-524681.4894 0 68859.87389)
(-506624.5042 0 65277.4164)
(-489254.0506 3.049968042e-10 61861.09465)
(-472542.1413 0 58710.62372)
(-456457.6244 0 55704.79367)
(-440930.6061 0 52928.20671)
(-426415.4031 0 50283.78566)
(-415258.6653 -3.13343572e-10 47825.76133)
(-72642.10043 0 507859.3917)
(-158894.1247 -4.53601398e-08 504881.9075)
(-257303.9948 -2.797120329e-08 500970.1174)
(-354079.7156 0 494008.5046)
(-441743.1497 1.64260521e-08 485669.5008)
(-524583.195 0 475879.6105)
(-600378.4709 0 464620.3927)
(-668055.8028 -1.071302278e-08 451544.5894)
(-728130.0438 4.859472174e-09 437248.4593)
(-781430.629 0 422487.8781)
(-827236.3196 -4.158334128e-09 407024.4145)
(-865188.6079 0 390619.8401)
(-896745.0958 7.383904556e-09 374236.0744)
(-921677.2164 0 357575.9897)
(-940296.1707 3.36363828e-09 340654.6202)
(-953529.8587 0 324178.5066)
(-961198.6185 0 307559.4646)
(-964315.7798 0 291488.0999)
(-962965.9216 0 275612.0226)
(-957959.2047 0 260365.9049)
(-949643.8169 0 245576.657)
(-938415.3262 0 231427.5994)
(-924683.4499 0 217844.9547)
(-908817.8091 0 204945.0296)
(-891178.9189 0 192645.7496)
(-872053.1559 0 181064.9351)
(-851837.0713 0 170062.1314)
(-830664.0147 0 159793.7927)
(-808929.2468 0 150055.9752)
(-786657.0489 0 141041.2398)
(-764173.6809 0 132473.0633)
(-741492.4216 1.232990245e-09 124605.0595)
(-718913.7189 0 117113.511)
(-696416.414 0 110272.7465)
(-674221.1032 0 103767.3777)
(-652318.1762 0 97806.62807)
(-630853.5871 0 92179.338)
(-609805.5955 -6.091067611e-10 86981.64898)
(-589312.067 6.094922858e-10 82110.56521)
(-569352.982 0 77583.54983)
(-549980.357 0 73360.75135)
(-531229.06 0 69407.63657)
(-513070.6911 0 65732.12418)
(-495568.5419 3.084940388e-10 62272.87529)
(-478689.4351 -3.097467164e-10 59063.70209)
(-462454.5488 0 56028.86668)
(-446811.2033 -3.127076756e-10 53211.08635)
(-431716.5165 0 50542.89214)
(-417589.2747 0 48069.67594)
(-406619.0596 3.182234739e-10 45706.61648)
(-69412.71973 0 522933.1638)
(-153762.2742 0 519984.6999)
(-249067.9646 0 516458.0687)
(-342672.5955 0 509462.9122)
(-427873.9868 0 500735.8148)
(-507248.9617 0 489936.809)
(-579527.9838 0 477067.6178)
(-644801.102 0 462863.0157)
(-703576.1478 -4.935151518e-09 447946.0758)
(-755066.1513 0 432105.8091)
(-798624.7736 0 415079.9578)
(-835751.8714 0 397825.3669)
(-866415.7835 0 380394.3238)
(-890232.709 0 362374.0686)
(-908594.0536 0 344687.222)
(-921304.1042 0 326932.1972)
(-928991.8012 0 309441.4339)
(-932196.634 0 292433.9149)
(-931252.2564 0 275668.4881)
(-926805.8549 0 259755.424)
(-919101.7621 0 244137.1919)
(-908642.315 0 229475.793)
(-895759.6172 0 215201.0822)
(-880831.4901 0 201920.3074)
(-864205.5131 0 189094.1075)
(-846148.2642 0 177238.8166)
(-826996.5221 -1.299147631e-09 165890.8399)
(-806948.9206 0 155427.9676)
(-786290.0537 0 145515.1121)
(-765111.6763 0 136360.4455)
(-743665.944 0 127766.503)
(-722037.8305 1.252192309e-09 119808.3951)
(-700423.2738 0 112413.2814)
(-678921.1517 0 105530.4637)
(-657591.8014 0 99186.48806)
(-636619.2489 0 93253.13972)
(-615929.8672 6.186238302e-10 87815.36465)
(-595709.8369 0 82697.41937)
(-575921.1258 0 78037.3989)
(-556685.2209 -6.19776631e-10 73622.12241)
(-537950.641 0 69616.45053)
(-519799.529 0 65797.64027)
(-502206.1796 0 62331.71268)
(-485223.8623 0 59017.50425)
(-468834.1464 -3.145705795e-10 56003.85051)
(-453043.4177 0 53113.2762)
(-437832.6639 0 50476.33539)
(-423148.4783 -3.193032882e-10 47945.8009)
(-409369.4384 0 45641.75161)
(-398637.2114 -3.231793504e-10 43391.89114)
(-66307.67971 0 546233.5852)
(-149140.5878 -4.678398293e-08 542960.2764)
(-241098.7679 0 539059.7412)
(-330257.5079 2.118525597e-08 531144.0666)
(-411703.2211 0 521003.7317)
(-487588.8422 0 508722.5893)
(-557388.2776 0 494968.3003)
(-621015.7757 5.524650904e-09 480118.8405)
(-677516.3137 0 464013.1057)
(-726328.7416 0 446449.9167)
(-768744.8528 -4.288863168e-09 428314.2954)
(-804897.1767 0 409914.6283)
(-833944.3697 0 390728.8384)
(-857280.4329 0 371605.2256)
(-875152.4164 0 352611.3114)
(-887541.2958 0 333467.7126)
(-895401.6048 0 314947.7541)
(-898675.4279 0 296554.1294)
(-898283.5528 0 278937.5017)
(-894344.5998 0 261755.8539)
(-887432.0789 0 245384.8623)
(-877816.5839 0 229637.9624)
(-865914.6096 -1.392991645e-09 214742.9557)
(-852063.9745 0 200560.5437)
(-836534.8408 0 187252.6499)
(-819692.785 0 174668.9245)
(-801707.0137 0 162967.4815)
(-782934.9218 0 151957.1248)
(-763431.3985 0 141804.8523)
(-743499.1891 0 132261.8078)
(-723169.7923 0 123536.8398)
(-702737.908 0 115337.5418)
(-682191.5973 0 107908.0044)
(-661757.5679 0 100909.3629)
(-641437.6214 0 94596.91139)
(-621386.0889 -6.287437551e-10 88667.41107)
(-601590.1875 -6.282580507e-10 83292.61381)
(-582193.4576 -6.282264658e-10 78277.23442)
(-563191.5024 6.28624092e-10 73706.32534)
(-544666.1039 0 69458.9702)
(-526599.8655 0 65557.35192)
(-509058.1335 0 61940.09023)
(-492037.616 0 58594.93037)
(-475574.8779 0 55496.1793)
(-459674.6404 3.194695862e-10 52612.11713)
(-444323.0946 -3.2091987e-10 49933.069)
(-429534.5128 0 47429.36002)
(-415253.4301 3.242760005e-10 45099.81848)
(-401781.7989 0 42925.50838)
(-391237.1611 0 40851.29198)
(-62494.76723 0 575742.6477)
(-143140.5531 0 571962.6449)
(-231142.3789 -2.929849912e-08 567104.3085)
(-315706.7875 2.15151873e-08 558096.2289)
(-393929.4273 -8.602752406e-09 547017.1088)
(-467246.2104 0 534223.3398)
(-534826.0155 6.296390977e-09 519809.1481)
(-595534.651 -5.610689771e-09 503655.4369)
(-648994.2037 -5.09006494e-09 485747.7455)
(-696172.9955 0 466929.6194)
(-737242.853 -4.355656334e-09 447613.836)
(-771394.5954 0 427334.998)
(-799629.5291 -3.867143627e-09 406656.2283)
(-822532.1274 0 386165.7125)
(-839568.7914 0 365342.8648)
(-851889.8681 3.388188641e-09 344950.6393)
(-859653.7163 0 324798.5182)
(-863309.3109 -3.171031173e-09 305067.5961)
(-863412.3337 0 286103.7003)
(-860177.0359 0 267574.7664)
(-854110.8164 0 250067.6155)
(-845478.5235 0 233066.2345)
(-834684.1506 0 217203.1799)
(-822008.0539 0 201922.0922)
(-807751.4316 1.372282462e-09 187789.3519)
(-792205.7076 0 174301.3417)
(-775589.0965 0 161905.0886)
(-758152.6302 -1.326889435e-09 150195.4515)
(-740010.0488 0 139463.3846)
(-721385.6384 1.306136844e-09 129423.3867)
(-702379.9607 0 120234.6653)
(-683203.9522 0 111732.4227)
(-663882.667 0 103943.9067)
(-644585.0251 0 96807.30693)
(-625405.5817 0 90258.27976)
(-606345.1845 0 84301.22406)
(-587570.9236 0 78812.15379)
(-569055.3116 0 73856.47713)
(-550934.5089 0 69268.39115)
(-533160.6129 0 65143.58039)
(-515832.8899 0 61295.3012)
(-498931.8942 0 57846.32449)
(-482527.142 3.219870625e-10 54602.05569)
(-466606.9507 3.231327673e-10 51698.18165)
(-451196.3955 0 48940.92)
(-436300.2593 0 46463.58265)
(-421924.1335 0 44098.75636)
(-408043.7247 -3.293261548e-10 41967.95959)
(-394849.8722 0 39930.53631)
(-384562.7556 -3.333238857e-10 38040.68365)
(-58437.03772 0 610559.4391)
(-136451.2284 0 606794.0674)
(-220481.481 0 601419.6904)
(-300761.8541 0 592239.0266)
(-376168.9973 0 580882.9116)
(-446415.8237 0 567319.1884)
(-510310.8494 0 551440.8845)
(-567612.2296 5.698068511e-09 533498.8988)
(-618932.3529 0 514283.9752)
(-664391.7351 -4.75538302e-09 494247.0697)
(-703206.771 4.423489663e-09 473068.7697)
(-735862.1317 0 451056.9641)
(-763280.5034 0 429027.6468)
(-785009.8986 0 406572.2081)
(-801731.742 0 384099.1544)
(-813944.0515 -3.440954997e-09 362101.7687)
(-821648.2441 0 340135.1557)
(-825786.0093 0 318993.7345)
(-826311.4628 0 298243.398)
(-823890.8988 0 278402.8445)
(-818669.8751 0 259216.9539)
(-811123.4888 0 241008.126)
(-801497.1097 0 223614.9769)
(-790102.8249 0 207239.0567)
(-777232.954 0 191748.6169)
(-763090.6536 0 177295.5682)
(-747983.6315 -1.360795138e-09 163726.4365)
(-731990.2048 0 151181.9256)
(-715376.6857 0 139462.8318)
(-698183.3978 0 128732.1026)
(-680685.6768 0 118752.577)
(-662880.5709 0 109711.3194)
(-644984.6834 0 101314.7204)
(-626994.8889 0 93794.80678)
(-609072.8828 0 86819.66488)
(-591200.6013 0 80610.99198)
(-573529.3569 0 74870.38122)
(-556062.6675 0 69772.38065)
(-538890.0581 0 65087.20007)
(-522000.7093 0 60911.4739)
(-505469.7219 0 57085.87104)
(-489303.0913 0 53661.42267)
(-473554.9517 -3.270015661e-10 50524.65513)
(-458226.9582 0 47699.45836)
(-443336.87 -3.294976681e-10 45098.14592)
(-428917.8461 -3.309934759e-10 42739.3072)
(-414967.2387 -3.326474324e-10 40552.50852)
(-401486.1757 0 38560.23288)
(-388568.0444 0 36701.65358)
(-378433.8812 0 34955.92529)
(-54769.94357 0 653296.327)
(-129789.0621 0 649849.2761)
(-209930.8102 0 643874.6559)
(-286000.6278 0 634326.0411)
(-357365.3566 0 622018.0238)
(-423333.6818 0 606880.4169)
(-483527.375 0 589378.6814)
(-538212.1921 -5.786807937e-09 570240.5194)
(-587350.9725 5.249840822e-09 549855.7651)
(-630223.097 0 528069.3166)
(-666859.9653 -4.492379311e-09 505008.3255)
(-698323.5941 -4.21698661e-09 481603.0299)
(-724413.4292 0 457784.8952)
(-745156.2215 0 433464.2932)
(-761563.8945 -3.633844359e-09 409468.2531)
(-773299.4483 -3.494543046e-09 385431.7814)
(-781177.4108 0 361897.1417)
(-785590.0521 0 338941.903)
(-786709.2388 0 316484.8501)
(-785028.9483 0 295010.0091)
(-780760.8961 0 274106.935)
(-774321.9069 0 254396.9055)
(-765927.4264 -1.459092212e-09 235360.4972)
(-755897.1205 0 217590.9627)
(-744465.903 0 200579.1461)
(-731858.5761 0 184838.182)
(-718299.1676 -1.381987613e-09 169898.3704)
(-703910.5005 0 156164.0148)
(-688884.7583 0 143249.8457)
(-673323.8331 1.347136157e-09 131438.5553)
(-657415.8406 0 120460.3958)
(-641193.5239 0 110461.9333)
(-624825.2109 -6.632727712e-10 101271.9534)
(-608332.6496 0 92935.55003)
(-591820.7159 0 85358.30658)
(-575320.0294 0 78503.2601)
(-558906.4942 0 72347.47223)
(-542685.3677 0 66792.51744)
(-526604.3483 0 61848.508)
(-510769.9882 0 57383.73546)
(-495164.1591 3.302726334e-10 53440.45125)
(-479869.4108 0 49870.58644)
(-464879.8975 0 46732.68489)
(-450237.886 0 43871.88146)
(-435952.4076 -3.346291321e-10 41353.48302)
(-422063.5778 0 39039.24458)
(-408589.367 0 36989.05316)
(-395521.8565 -3.396636215e-10 35085.61761)
(-382907.4706 0 33387.82758)
(-372884.9739 0 31749.27354)
(-51473.56364 0 702759.628)
(-122672.8978 0 699460.7814)
(-198305.6931 0 692165.8558)
(-269583.1228 0 681707.3126)
(-336478.3246 0 668080.2366)
(-398495.2309 0 651735.7401)
(-455628.7312 0 633372.9916)