/*--------------------------------*- C++ -*----------------------------------*\
  =========                 |
  \\      /  F ield         | OpenFOAM: The Open Source CFD Toolbox
   \\    /   O peration     | Website:  https://openfoam.org
    \\  /    A nd           | Version:  7
     \\/     M anipulation  |
\*---------------------------------------------------------------------------*/
FoamFile
{
    version     2.0;
    format      ascii;
    class       volVectorField;
    location    "0.0012";
    object      U;
}
// * * * * * * * * * * * * * * * * * * * * * * * * * * * * * * * * * * * * * //

dimensions      [0 1 -1 0 0 0 0];

internalField   nonuniform List<vector> 
1167
(
(1.849470509e-08 4.212529606e-20 -0.002154785891)
(4.815390637e-08 -3.409335489e-20 -0.002154788684)
(7.581274665e-08 -1.067530609e-19 -0.002154794663)
(1.038086266e-07 -1.59695157e-19 -0.002154803522)
(1.308788091e-07 3.742240708e-20 -0.002154815071)
(1.567086303e-07 1.633558155e-19 -0.002154829193)
(1.812354769e-07 2.739841665e-19 -0.002154845771)
(2.04368366e-07 2.15625362e-19 -0.002154864685)
(2.259866363e-07 3.124463111e-19 -0.002154885812)
(2.460563208e-07 2.462648286e-19 -0.002154909051)
(2.645519803e-07 1.825419998e-19 -0.002154934307)
(2.814154769e-07 1.117414168e-19 -0.002154961466)
(2.966562223e-07 1.186474427e-19 -0.002154990441)
(3.102744766e-07 9.598191979e-20 -0.002155021141)
(3.222488267e-07 1.284564419e-19 -0.00215505345)
(3.326059506e-07 1.046326764e-19 -0.002155087283)
(3.41343929e-07 1.109623367e-19 -0.002155122522)
(3.485001832e-07 1.079508527e-19 -0.002155159076)
(3.540995071e-07 9.335818016e-20 -0.002155196827)
(3.581763349e-07 1.525171884e-19 -0.002155235672)
(3.607688188e-07 2.028388806e-19 -0.002155275486)
(3.61915648e-07 2.310074899e-19 -0.002155316156)
(3.616693718e-07 2.335015055e-19 -0.002155357548)
(3.600735918e-07 2.383966064e-19 -0.002155399544)
(3.571900282e-07 2.452203504e-19 -0.002155441997)
(3.530521769e-07 2.528871718e-19 -0.002155484779)
(3.477193911e-07 2.632699635e-19 -0.002155527734)
(3.412392561e-07 2.752411406e-19 -0.002155570731)
(3.336785174e-07 2.893676065e-19 -0.00215561361)
(3.25079357e-07 2.87586091e-19 -0.002155656223)
(3.154911651e-07 2.728416772e-19 -0.002155698411)
(3.049753066e-07 2.654035076e-19 -0.002155740009)
(2.935718498e-07 2.617918197e-19 -0.002155780861)
(2.813462728e-07 2.593828165e-19 -0.002155820791)
(2.683398072e-07 2.559536193e-19 -0.002155859645)
(2.546163445e-07 2.649227197e-19 -0.002155897249)
(1.889167042e-08 6.892436462e-19 -0.002155249114)
(4.918639654e-08 1.212102844e-19 -0.002155251983)
(7.743550123e-08 -3.214281821e-19 -0.002155258127)
(1.060235351e-07 -1.59369012e-20 -0.002155267254)
(1.336941542e-07 8.683742215e-20 -0.00215527918)
(1.601382187e-07 1.271913431e-19 -0.002155293761)
(1.852052584e-07 1.310881366e-19 -0.002155310862)
(2.087953799e-07 3.229520764e-19 -0.002155330336)
(2.308692707e-07 5.299186704e-19 -0.002155352092)
(2.513757534e-07 4.057875159e-19 -0.00215537602)
(2.702339573e-07 2.611443604e-19 -0.002155401997)
(2.874421639e-07 1.599905588e-19 -0.002155429928)
(3.02997626e-07 1.5847226e-19 -0.002155459719)
(3.168616423e-07 1.504461435e-19 -0.002155491248)
(3.290626771e-07 1.326217414e-19 -0.002155524429)
(3.395975661e-07 1.22607928e-19 -0.002155559145)
(3.484892841e-07 1.173335792e-19 -0.002155595295)
(3.557617878e-07 1.109730789e-19 -0.00215563277)
(3.614435452e-07 1.00623468e-19 -0.00215567145)
(3.655662774e-07 9.865935946e-20 -0.002155711225)
(3.681697069e-07 8.865534699e-20 -0.002155751968)
(3.692969757e-07 1.184751169e-19 -0.00215579356)
(3.689964699e-07 1.405168111e-19 -0.002155835868)
(3.673214789e-07 1.782388257e-19 -0.002155878762)
(3.643187223e-07 2.102563132e-19 -0.002155922106)
(3.600387736e-07 2.145941889e-19 -0.002155965751)
(3.545313046e-07 2.183272885e-19 -0.002156009559)
(3.478709255e-07 2.240598666e-19 -0.002156053371)
(3.400999505e-07 2.316590945e-19 -0.002156097045)
(3.312833711e-07 2.224767277e-19 -0.002156140409)
(3.21460917e-07 2.195789006e-19 -0.002156183319)
(3.10695805e-07 2.346097809e-19 -0.002156225601)
(2.990274613e-07 2.496788006e-19 -0.002156267098)
(2.865099833e-07 2.651651431e-19 -0.002156307643)
(2.732117838e-07 2.807354263e-19 -0.002156347066)
(2.591745918e-07 2.902565289e-19 -0.002156385208)
(2.444566557e-07 2.935217189e-19 -0.002156421889)
(2.290929712e-07 2.971117458e-19 -0.002156456954)
(2.131406504e-07 3.08193358e-19 -0.002156490228)
(1.966359171e-07 3.286266539e-19 -0.002156521555)
(1.796311536e-07 3.289629535e-19 -0.002156550769)
(1.621605407e-07 3.207113012e-19 -0.002156577713)
(1.442620252e-07 3.147957285e-19 -0.002156602231)
(1.259768821e-07 3.099388555e-19 -0.00215662417)
(1.073403408e-07 3.050695885e-19 -0.002156643383)
(8.839402402e-08 3.069031021e-19 -0.002156659726)
(6.915823549e-08 3.121287691e-19 -0.002156673064)
(4.966766186e-08 3.219668017e-19 -0.002156683258)
(3.002103679e-08 3.215504488e-19 -0.002156690186)
(1.048212657e-08 3.235222187e-19 -0.002156693719)
(1.933568127e-08 2.365854495e-19 -0.002155700019)
(5.034187414e-08 5.687395117e-19 -0.002155703005)
(7.92763313e-08 3.708447963e-19 -0.002155709381)
(1.085808888e-07 4.458948781e-19 -0.002155718842)
(1.369127899e-07 2.893129587e-19 -0.002155731197)
(1.639389743e-07 2.201357767e-19 -0.002155746271)
(1.895453659e-07 1.833255722e-19 -0.00215576393)
(2.136890848e-07 3.785302631e-19 -0.002155784066)
(2.362851857e-07 4.258560695e-19 -0.002155806552)
(2.57222767e-07 3.466809618e-19 -0.002155831249)
(2.764943244e-07 2.977403094e-19 -0.002155858058)
(2.940897058e-07 2.955873607e-19 -0.002155886881)
(3.099553986e-07 2.307371419e-19 -0.002155917588)
(3.241165264e-07 2.143749927e-19 -0.00215595009)
(3.365649366e-07 1.410287193e-19 -0.002155984272)
(3.473008007e-07 1.202437665e-19 -0.00215602001)
(3.56352332e-07 1.333519472e-19 -0.002156057208)
(3.637341716e-07 1.399325872e-19 -0.00215609573)
(3.694846974e-07 1.829267191e-19 -0.002156135478)
(3.736374302e-07 1.342510631e-19 -0.002156176308)
(3.762352578e-07 1.193856801e-19 -0.002156218115)
(3.773270033e-07 9.986620525e-20 -0.002156260752)
(3.76962004e-07 1.283586062e-19 -0.002156304106)
(3.751975772e-07 1.481559223e-19 -0.002156348024)
(3.720713101e-07 1.605992727e-19 -0.002156392376)
(3.676449721e-07 1.732081686e-19 -0.002156437005)
(3.619701892e-07 1.561350579e-19 -0.002156481773)
(3.551055401e-07 1.509615891e-19 -0.002156526522)
(3.471103508e-07 1.34491276e-19 -0.002156571096)
(3.380349531e-07 1.505356752e-19 -0.002156615338)
(3.279477303e-07 1.800036004e-19 -0.002156659078)
(3.168881256e-07 2.080922588e-19 -0.002156702161)
(3.049243769e-07 2.382098394e-19 -0.002156744407)
(2.921036704e-07 2.74244602e-19 -0.002156785663)
(2.784939709e-07 3.034881656e-19 -0.002156825753)
(2.641335715e-07 3.108815249e-19 -0.002156864515)
(2.490718192e-07 2.987695761e-19 -0.002156901777)
(2.3336336e-07 2.818131147e-19 -0.002156937372)
(2.170513573e-07 2.860948664e-19 -0.002156971136)
(2.001929691e-07 2.956130046e-19 -0.002157002901)
(1.828244713e-07 2.961174169e-19 -0.002157032513)
(1.649960438e-07 2.951112936e-19 -0.002157059804)
(1.467399829e-07 2.973248688e-19 -0.002157084629)
(1.281023759e-07 3.019373491e-19 -0.002157106827)
(1.091191291e-07 3.085905332e-19 -0.002157126261)
(8.982969927e-08 3.017551191e-19 -0.002157142782)
(7.025698706e-08 3.069173884e-19 -0.002157156259)
(5.04350978e-08 3.080657435e-19 -0.002157166557)
(3.046440379e-08 3.040001139e-19 -0.002157173553)
(1.061775428e-08 3.127737119e-19 -0.002157177124)
(1.98342177e-08 9.486686101e-20 -0.002156138865)
(5.162556613e-08 1.894969258e-19 -0.002156141968)
(8.12666749e-08 2.772596374e-19 -0.002156148586)
(1.112726981e-07 3.2721118e-19 -0.002156158388)
(1.402725764e-07 2.826500152e-19 -0.002156171179)
(1.679502059e-07 2.39747577e-19 -0.002156186812)
(1.942209986e-07 2.164471171e-19 -0.002156205144)
(2.189590257e-07 2.156067535e-19 -0.002156226032)
(2.420440472e-07 1.760338462e-19 -0.002156249316)
(2.634645536e-07 1.994352695e-19 -0.002156274897)
(2.831950219e-07 1.436064801e-19 -0.002156302666)
(3.01166561e-07 1.506673725e-19 -0.002156332485)
(3.173965212e-07 1.125327085e-19 -0.002156364251)
(3.318666403e-07 1.501866159e-19 -0.002156397851)
(3.445493956e-07 1.65787689e-19 -0.002156433144)
(3.554866196e-07 1.821468957e-19 -0.002156470036)
(3.646832285e-07 1.910352981e-19 -0.002156508389)
(3.721775725e-07 2.022419272e-19 -0.002156548099)
(3.779933209e-07 2.179428661e-19 -0.002156589028)
(3.821745479e-07 2.040677849e-19 -0.002156631063)
(3.847640789e-07 1.968027234e-19 -0.00215667406)
(3.858108792e-07 1.990217573e-19 -0.002156717898)
(3.853738846e-07 1.774269486e-19 -0.002156762429)
(3.834927531e-07 1.640158204e-19 -0.002156807522)
(3.802239432e-07 1.509008304e-19 -0.002156853013)
(3.756191253e-07 1.623669025e-19 -0.002156898769)
(3.697527224e-07 1.784828591e-19 -0.00215694462)
(3.62673145e-07 1.667442599e-19 -0.002156990428)
(3.544475146e-07 1.557096146e-19 -0.002157036019)
(3.451198699e-07 1.452891901e-19 -0.002157081244)
(3.347523016e-07 1.561116764e-19 -0.002157125928)
(3.233950964e-07 1.640419649e-19 -0.002157169909)
(3.111070155e-07 1.668068963e-19 -0.002157213018)
(2.979645593e-07 1.62984166e-19 -0.002157255084)
(2.840090679e-07 1.584952869e-19 -0.002157295945)
(2.693021281e-07 1.658653827e-19 -0.002157335419)
(2.538844228e-07 1.665120504e-19 -0.002157373349)
(2.378179624e-07 1.776136384e-19 -0.002157409557)
(2.211435431e-07 1.833875393e-19 -0.002157443886)
(2.039184023e-07 1.894005445e-19 -0.002157476165)
(1.86181315e-07 1.955093892e-19 -0.002157506238)
(1.679745756e-07 2.188919881e-19 -0.002157533944)
(1.493470566e-07 2.389148156e-19 -0.002157559128)
(1.303363679e-07 2.559899758e-19 -0.002157581642)
(1.109904171e-07 2.702337632e-19 -0.002157601338)
(9.13397099e-08 2.684049161e-19 -0.002157618079)
(7.141591895e-08 2.643424236e-19 -0.002157631726)
(5.125023366e-08 2.617998387e-19 -0.002157642153)
(3.094978796e-08 2.662482464e-19 -0.002157649232)
(1.077947039e-08 2.700938538e-19 -0.002157652852)
(2.03264523e-08 8.058502272e-20 -0.002156565644)
(5.290240986e-08 1.761317111e-19 -0.002156568867)
(8.326949792e-08 3.2451029e-19 -0.002156575754)
(1.140209491e-07 5.938665196e-19 -0.002156585975)
(1.437747753e-07 3.420162562e-19 -0.002156599322)
(1.721772746e-07 2.254632737e-19 -0.002156615619)
(1.990680038e-07 1.550809398e-19 -0.002156634697)
(2.243446876e-07 8.182132823e-20 -0.002156656391)
(2.479806218e-07 -1.022353879e-20 -0.002156680597)
(2.699251894e-07 5.012042781e-20 -0.002156707192)
(2.900866191e-07 7.36445873e-20 -0.002156736022)
(3.084656094e-07 1.250508857e-19 -0.002156766973)
(3.250442856e-07 1.71839015e-19 -0.002156799927)
(3.397763533e-07 1.892590455e-19 -0.002156834726)
(3.527037163e-07 1.917734332e-19 -0.00215687128)
(3.638270622e-07 2.373563441e-19 -0.00215690945)
(3.731763495e-07 2.364351946e-19 -0.002156949115)
(3.807756828e-07 2.421802546e-19 -0.002156990149)
(3.866571002e-07 2.135529812e-19 -0.002157032412)
(3.908621303e-07 2.400089591e-19 -0.002157075783)
(3.934362937e-07 2.162995699e-19 -0.002157120112)
(3.944353197e-07 2.031342244e-19 -0.002157165275)
(3.939131408e-07 1.664616259e-19 -0.002157211117)
(3.919110811e-07 1.758963733e-19 -0.002157257496)
(3.884841846e-07 1.809577316e-19 -0.002157304256)
(3.836987522e-07 1.617970466e-19 -0.002157351249)
(3.776172728e-07 1.681123695e-19 -0.002157398319)
(3.703109315e-07 1.762061577e-19 -0.002157445301)
(3.61823696e-07 1.836987174e-19 -0.00215749204)
(3.522250078e-07 1.767038912e-19 -0.002157538357)
(3.415611424e-07 1.624328544e-19 -0.0021575841)
(3.299041983e-07 1.615728787e-19 -0.002157629083)
(3.173067904e-07 1.510027924e-19 -0.002157673152)
(3.038410475e-07 1.290370053e-19 -0.002157716128)
(2.895494641e-07 1.297381093e-19 -0.002157757843)
(2.744850122e-07 1.302315914e-19 -0.002157798125)
(2.587111021e-07 1.348905361e-19 -0.002157836803)
(2.422729255e-07 1.346764203e-19 -0.002157873711)
(2.25231857e-07 1.216315813e-19 -0.002157908676)
(2.076289975e-07 1.265573681e-19 -0.002157941544)
(1.895194411e-07 1.464347482e-19 -0.002157972141)
(1.709401158e-07 1.816824107e-19 -0.00215800032)
(1.519419864e-07 2.073245461e-19 -0.002158025917)
(1.325654334e-07 2.237465601e-19 -0.002158048792)
(1.128565474e-07 2.334332821e-19 -0.002158068793)
(9.284854863e-08 2.395346798e-19 -0.002158085784)
(7.257371232e-08 2.3966005e-19 -0.002158099628)
(5.206754665e-08 2.44177746e-19 -0.002158110199)
(3.143924122e-08 2.508988162e-19 -0.002158117373)
(1.094581852e-08 2.398942696e-19 -0.002158121035)
(2.082459089e-08 3.634998769e-21 -0.002156980734)
(5.419701863e-08 -4.209015799e-20 -0.002156984112)
(8.53270903e-08 2.883846706e-20 -0.002156991324)
(1.168533348e-07 1.153433011e-19 -0.002157002017)
(1.473061625e-07 2.640805178e-19 -0.002157015957)
(1.763283138e-07 1.812821742e-19 -0.002157032941)
(2.038004342e-07 1.692271895e-19 -0.002157052815)
(2.296796034e-07 3.588615298e-20 -0.002157075454)
(2.538787543e-07 -6.147003337e-20 -0.002157100708)
(2.76281367e-07 4.726006415e-20 -0.002157128407)
(2.968764444e-07 1.856272107e-19 -0.002157158424)
(3.156413542e-07 2.263342626e-19 -0.002157190635)
(3.325085832e-07 3.007894528e-19 -0.002157224876)
(3.475209806e-07 3.087515193e-19 -0.002157261038)
(3.606815044e-07 2.936838027e-19 -0.002157298989)
(3.719828625e-07 2.902022304e-19 -0.002157338584)
(3.814609975e-07 2.511623758e-19 -0.002157379705)
(3.891344407e-07 2.558836646e-19 -0.002157422192)
(3.950515842e-07 2.163046088e-19 -0.002157465933)
(3.992511576e-07 2.017974723e-19 -0.002157510763)
(4.017883458e-07 1.839001339e-19 -0.002157556566)
(4.027172385e-07 1.815113941e-19 -0.002157603174)
(4.020825372e-07 1.940799206e-19 -0.002157650458)
(3.999416846e-07 1.889207226e-19 -0.002157698241)
(3.963537892e-07 1.772435119e-19 -0.002157746392)
(3.913925756e-07 1.631584129e-19 -0.002157794737)
(3.851118763e-07 1.672223222e-19 -0.002157843131)
(3.775816183e-07 1.864307436e-19 -0.002157891398)
(3.688497234e-07 2.001390287e-19 -0.002157939379)
(3.58978534e-07 2.337636925e-19 -0.002157986899)
(3.480320071e-07 2.25427872e-19 -0.00215803379)
(3.360688446e-07 2.376489689e-19 -0.002158079883)
(3.231680904e-07 2.3603315e-19 -0.002158125)
(3.093760777e-07 2.412583562e-19 -0.00215816898)
(2.947584297e-07 2.507195163e-19 -0.002158211633)
(2.793606008e-07 2.506720666e-19 -0.002158252803)
(2.632489867e-07 2.616635068e-19 -0.002158292306)
(2.46468626e-07 2.497615305e-19 -0.002158329983)
(2.290811485e-07 2.472470816e-19 -0.002158365659)
(2.111299272e-07 2.504092802e-19 -0.002158399173)
(1.926628531e-07 2.58071476e-19 -0.002158430362)
(1.737327861e-07 2.502753124e-19 -0.002158459065)
(1.54380704e-07 2.464072268e-19 -0.002158485133)
(1.346592139e-07 2.486680866e-19 -0.00215850841)
(1.146049116e-07 2.533867197e-19 -0.002158528758)
(9.425993978e-08 2.669294494e-19 -0.002158546031)
(7.365242868e-08 2.714929482e-19 -0.002158560101)
(5.282360067e-08 2.769896512e-19 -0.002158570835)
(3.187951552e-08 2.769384049e-19 -0.002158578116)
(1.108340769e-08 2.751166577e-19 -0.002158581822)
(2.130392873e-08 -1.837609984e-19 -0.002157384608)
(5.542981589e-08 -5.79892926e-19 -0.002157388135)
(8.723447553e-08 -4.060932848e-19 -0.002157395675)
(1.194253858e-07 -4.89261782e-19 -0.002157406835)
(1.505044932e-07 -1.335310804e-19 -0.002157421385)
(1.801404058e-07 7.871124836e-20 -0.00215743915)
(2.082450797e-07 2.895716865e-20 -0.002157459964)
(2.346836257e-07 2.55627876e-20 -0.002157483653)
(2.593290818e-07 1.424931892e-20 -0.002157510024)
(2.821636633e-07 1.159099667e-19 -0.002157538945)
(3.031540872e-07 2.105178545e-19 -0.002157570277)
(3.222180003e-07 2.444965635e-19 -0.002157603844)
(3.39375172e-07 1.730991147e-19 -0.002157639519)
(3.546289841e-07 2.368397407e-19 -0.002157677173)
(3.679530379e-07 2.891212272e-19 -0.002157716631)
(3.79389704e-07 2.811295658e-19 -0.00215775778)
(3.889440977e-07 2.788364624e-19 -0.002157800457)
(3.966671897e-07 2.766721335e-19 -0.002157844536)
(4.025901766e-07 2.509400357e-19 -0.00215788986)
(4.06766846e-07 2.230210098e-19 -0.00215793629)
(4.092512279e-07 2.588284024e-19 -0.002157983673)
(4.100916007e-07 2.635909003e-19 -0.002158031859)
(4.093360071e-07 2.765604404e-19 -0.002158080689)
(4.070452461e-07 2.397833544e-19 -0.002158130008)
(4.032972492e-07 2.350162179e-19 -0.002158179654)
(3.981473012e-07 2.298681006e-19 -0.002158229473)
(3.916673827e-07 2.450140049e-19 -0.002158279288)
(3.839079356e-07 2.393779918e-19 -0.002158328946)
(3.749410703e-07 2.3609429e-19 -0.002158378257)
(3.648190687e-07 2.332303902e-19 -0.00215842707)
(3.536174155e-07 2.576728345e-19 -0.002158475194)
(3.413933372e-07 2.55589492e-19 -0.002158522472)
(3.282221979e-07 2.628921942e-19 -0.00215856872)
(3.14150926e-07 2.770448371e-19 -0.002158613768)
(2.992369036e-07 2.619483373e-19 -0.00215865744)
(2.835480274e-07 2.522391326e-19 -0.002158699561)
(2.671321365e-07 2.454172981e-19 -0.002158739962)
(2.500542519e-07 2.597904377e-19 -0.002158778466)
(2.323594167e-07 2.742615909e-19 -0.002158814914)
(2.141069911e-07 2.87494554e-19 -0.002158849128)
(1.953373652e-07 2.863027718e-19 -0.002158880958)
(1.761056164e-07 2.757277361e-19 -0.002158910235)
(1.564557363e-07 2.674390363e-19 -0.002158936813)
(1.364379571e-07 2.631902642e-19 -0.002158960535)
(1.160910979e-07 2.598320708e-19 -0.002158981262)
(9.545729511e-08 2.701059881e-19 -0.002158998849)
(7.45676124e-08 2.967182084e-19 -0.002159013168)
(5.346275455e-08 3.187291772e-19 -0.002159024087)
(3.224841618e-08 3.273434265e-19 -0.002159031489)
(1.119484596e-08 3.355177782e-19 -0.002159035254)
(2.169234355e-08 -4.87079654e-19 -0.002157777582)
(5.643363087e-08 -4.11219134e-19 -0.002157781263)
(8.880214187e-08 -5.773122411e-19 -0.002157789166)
(1.215747858e-07 -4.219893011e-19 -0.002157800889)
(1.53249373e-07 -3.970113959e-19 -0.002157816188)
(1.83457773e-07 -2.022593489e-19 -0.002157834857)
(2.120334752e-07 -1.540863658e-19 -0.002157856687)
(2.388593403e-07 3.089981714e-20 -0.002157881474)
(2.638987255e-07 1.902966581e-19 -0.002157909079)
(2.870977906e-07 1.788388699e-19 -0.002157939344)
(3.083537209e-07 1.885288033e-19 -0.002157972077)
(3.276616108e-07 1.920303652e-19 -0.002158007129)
(3.45027146e-07 2.533862362e-19 -0.002158044365)
(3.604049675e-07 2.257554072e-19 -0.002158083598)
(3.738408322e-07 2.593837765e-19 -0.002158124701)
(3.853418233e-07 2.368909669e-19 -0.002158167514)
(3.949338981e-07 2.575697734e-19 -0.002158211881)
(4.026584927e-07 2.290198847e-19 -0.002158257663)
(4.08548082e-07 2.461173933e-19 -0.002158304687)
(4.126657088e-07 2.614132018e-19 -0.002158352822)
(4.150616054e-07 2.905426611e-19 -0.002158401889)
(4.157855967e-07 3.123903915e-19 -0.002158451748)
(4.148962973e-07 3.177069316e-19 -0.002158502217)
(4.124602625e-07 3.078149614e-19 -0.002158553155)
(4.085520364e-07 3.074223197e-19 -0.002158604381)
(4.032299894e-07 3.308911266e-19 -0.002158655743)
(3.965656191e-07 2.876457058e-19 -0.00215870706)
(3.886119962e-07 2.778793438e-19 -0.002158758166)
(3.794325623e-07 2.698124706e-19 -0.002158808888)
(3.691014371e-07 2.603128848e-19 -0.002158859048)
(3.576776609e-07 2.614578025e-19 -0.002158908478)
(3.452421041e-07 2.328989171e-19 -0.002158956994)
(3.318452153e-07 2.364611392e-19 -0.002159004433)
(3.175555942e-07 2.277115902e-19 -0.002159050601)
(3.024218749e-07 2.274107262e-19 -0.002159095341)
(2.865134484e-07 2.311226079e-19 -0.002159138462)
(2.698782821e-07 2.400582971e-19 -0.002159179802)
(2.52580832e-07 2.722931889e-19 -0.002159219183)
(2.346679772e-07 2.993204627e-19 -0.002159256439)
(2.161934283e-07 3.208905136e-19 -0.002159291401)
(1.972088246e-07 3.129499167e-19 -0.002159323906)
(1.777586524e-07 3.041618693e-19 -0.002159353797)
(1.578993906e-07 2.95795696e-19 -0.002159380916)
(1.376705083e-07 3.006777192e-19 -0.002159405116)
(1.171195143e-07 3.052902181e-19 -0.002159426246)
(9.628333221e-08 3.059374593e-19 -0.002159444173)
(7.519939317e-08 3.152470368e-19 -0.002159458758)
(5.390588726e-08 3.180797072e-19 -0.002159469879)
(3.251086938e-08 3.256528383e-19 -0.002159477409)
(1.128134291e-08 3.286127655e-19 -0.00215948124)
(2.197477159e-08 1.985175663e-19 -0.002158160519)
(5.716588581e-08 4.130920374e-19 -0.002158164389)
(8.997318603e-08 1.761932332e-20 -0.002158172724)
(1.231976497e-07 -1.609729833e-19 -0.002158185077)
(1.55263056e-07 -2.779983425e-19 -0.002158201167)
(1.857848126e-07 -2.072052083e-19 -0.002158220752)
(2.146306388e-07 -2.588832551e-20 -0.002158243631)
(2.417478797e-07 5.392212001e-20 -0.002158269637)
(2.670528512e-07 2.118022064e-19 -0.002158298587)
(2.904165721e-07 1.970407836e-19 -0.002158330266)
(3.118146541e-07 2.030383271e-19 -0.002158364505)
(3.312516275e-07 2.010269503e-19 -0.00215840116)
(3.486681714e-07 2.994053704e-19 -0.002158440033)
(3.6409359e-07 2.483143828e-19 -0.002158480972)
(3.775424036e-07 2.303954e-19 -0.002158523821)
(3.890080557e-07 2.319625888e-19 -0.002158568392)
(3.98546185e-07 2.355596304e-19 -0.002158614552)
(4.061817994e-07 2.242250508e-19 -0.002158662109)
(4.119774507e-07 2.471167786e-19 -0.002158710931)
(4.159797979e-07 2.258184321e-19 -0.002158760835)
(4.182446606e-07 1.99104022e-19 -0.002158811672)
(4.188236895e-07 2.296848226e-19 -0.002158863259)
(4.17782418e-07 2.571866526e-19 -0.002158915444)
(4.1519765e-07 2.859083397e-19 -0.002158968047)
(4.111312111e-07 2.832621793e-19 -0.002159020916)
(4.05655955e-07 3.09154696e-19 -0.002159073859)
(3.988280843e-07 3.149568573e-19 -0.002159126725)
(3.907212606e-07 3.150585532e-19 -0.002159179315)
(3.813926664e-07 3.182827844e-19 -0.002159231477)
(3.709198061e-07 3.266814467e-19 -0.002159283016)
(3.593632584e-07 3.15836308e-19 -0.002159333772)
(3.468000179e-07 3.043154758e-19 -0.002159383557)
(3.332802904e-07 3.086181331e-19 -0.0021594322)
(3.188655032e-07 3.117232231e-19 -0.00215947952)
(3.036223133e-07 3.282858079e-19 -0.00215952534)
(2.876006953e-07 3.401210265e-19 -0.002159569488)
(2.708673797e-07 3.492565484e-19 -0.002159611782)
(2.534690595e-07 3.528832256e-19 -0.002159652061)
(2.354672661e-07 3.604094275e-19 -0.002159690141)
(2.169033421e-07 3.557314742e-19 -0.002159725869)
(1.978342994e-07 3.489166925e-19 -0.002159759066)
(1.783056915e-07 3.483526251e-19 -0.002159789586)
(1.583700074e-07 3.488850663e-19 -0.002159817262)
(1.380678318e-07 3.509299512e-19 -0.002159841952)
(1.174455653e-07 3.56044453e-19 -0.002159863501)
(9.654227003e-08 3.519881867e-19 -0.002159881776)
(7.539511576e-08 3.390211536e-19 -0.002159896636)
(5.404368318e-08 3.214965308e-19 -0.002159907959)
(3.2595906e-08 3.098036987e-19 -0.002159915619)
(1.131205771e-08 2.953360978e-19 -0.002159919503)
(2.21074804e-08 1.008972616e-18 -0.002158534516)
(5.749623832e-08 5.746862373e-19 -0.002158538566)
(9.046169979e-08 5.904619022e-19 -0.002158547329)
(1.238151372e-07 3.094465279e-19 -0.002158560296)
(1.559745323e-07 2.348344088e-19 -0.00215857717)
(1.865863024e-07 2.067041964e-19 -0.00215859773)
(2.155509606e-07 2.139988378e-19 -0.002158621776)
(2.427414137e-07 1.809401615e-19 -0.002158649088)
(2.680184377e-07 2.416079483e-19 -0.002158679422)
(2.91344645e-07 1.975805574e-19 -0.002158712596)
(3.127166957e-07 2.403174416e-19 -0.002158748448)
(3.320620013e-07 2.810431398e-19 -0.002158786767)
(3.493740549e-07 1.922851047e-19 -0.002158827368)
(3.646788894e-07 1.603274062e-19 -0.002158870097)
(3.779553073e-07 1.713256868e-19 -0.00215891474)
(3.892613074e-07 2.239461629e-19 -0.002158961153)
(3.986150604e-07 2.86230326e-19 -0.002159009149)
(4.060737897e-07 2.833863112e-19 -0.002159058558)
(4.116914798e-07 2.520389666e-19 -0.002159109216)
(4.155112664e-07 2.208535497e-19 -0.002159160941)
(4.17590863e-07 2.135495682e-19 -0.002159213571)
(4.179909252e-07 1.865695761e-19 -0.00215926692)
(4.167859052e-07 2.139384754e-19 -0.002159320832)
(4.140499242e-07 2.535380645e-19 -0.002159375122)
(4.09847181e-07 2.745610941e-19 -0.002159429626)
(4.042492084e-07 2.806363614e-19 -0.002159484162)
(3.973152178e-07 3.238297742e-19 -0.002159538557)
(3.89110904e-07 3.296176021e-19 -0.002159592634)
(3.797152349e-07 3.299139361e-19 -0.002159646214)
(3.691871208e-07 3.51457877e-19 -0.002159699126)
(3.576076274e-07 3.706167766e-19 -0.002159751183)
(3.45029417e-07 3.892856772e-19 -0.002159802221)
(3.315217348e-07 3.812256443e-19 -0.002159852044)
(3.171333117e-07 4.129146604e-19 -0.002159900493)
(3.019335065e-07 4.278671494e-19 -0.002159947374)
(2.859702984e-07 4.295098176e-19 -0.002159992525)
(2.693076751e-07 4.184534793e-19 -0.00216003576)
(2.519927962e-07 3.864038607e-19 -0.002160076915)
(2.340820057e-07 3.670251989e-19 -0.002160115813)
(2.156202069e-07 3.545850272e-19 -0.002160152289)
(1.966554966e-07 3.634671652e-19 -0.002160186177)
(1.772438903e-07 3.770371648e-19 -0.002160217315)
(1.574241998e-07 3.858064461e-19 -0.002160245549)
(1.372445046e-07 3.781467752e-19 -0.002160270721)
(1.167437293e-07 3.686988405e-19 -0.002160292691)
(9.596629407e-08 3.632313202e-19 -0.002160311309)
(7.494465658e-08 3.548115861e-19 -0.002160326446)
(5.37193284e-08 3.505414143e-19 -0.002160337966)
(3.239738008e-08 3.443271921e-19 -0.002160345751)
(1.123884692e-08 3.357058033e-19 -0.002160349677)
(2.197843664e-08 -9.442799946e-20 -0.002158900598)
(5.715246382e-08 -3.300791186e-19 -0.002158904814)
(8.990342613e-08 1.257554586e-19 -0.002158914014)
(1.23027858e-07 3.171775992e-19 -0.002158927649)
(1.549754484e-07 5.942885451e-19 -0.002158945416)
(1.853963841e-07 4.496120566e-19 -0.00215896706)
(2.141073578e-07 3.947170189e-19 -0.002158992323)
(2.409633474e-07 3.561283464e-19 -0.002159020946)
(2.659224729e-07 2.986704203e-19 -0.002159052728)
(2.889643473e-07 3.050769068e-19 -0.002159087489)
(3.099965798e-07 2.822747431e-19 -0.002159124993)
(3.289829708e-07 2.27444799e-19 -0.002159165024)
(3.459578044e-07 1.852909942e-19 -0.00215920742)
(3.608865672e-07 1.801362238e-19 -0.002159251957)
(3.738145236e-07 1.984351708e-19 -0.002159298454)
(3.847779651e-07 1.97810014e-19 -0.002159346733)
(3.937917818e-07 2.36773616e-19 -0.002159396587)
(4.009292836e-07 2.887896224e-19 -0.002159447865)
(4.062349924e-07 2.72838642e-19 -0.002159500349)
(4.097704665e-07 3.113406606e-19 -0.002159553892)
(4.115878127e-07 3.122207079e-19 -0.002159608284)
(4.11762128e-07 2.854485801e-19 -0.002159663376)
(4.103693462e-07 2.970936504e-19 -0.002159718966)
(4.074781109e-07 3.119815219e-19 -0.002159774901)
(4.031616148e-07 3.268836674e-19 -0.002159830979)
(3.974817909e-07 3.411747699e-19 -0.002159887047)
(3.905127294e-07 3.55975091e-19 -0.0021599429)
(3.823151003e-07 3.660607397e-19 -0.002159998387)
(3.729663896e-07 3.704323211e-19 -0.002160053309)
(3.625283737e-07 3.851077957e-19 -0.002160107507)
(3.510768811e-07 4.173179006e-19 -0.00216016079)
(3.386628873e-07 4.438210113e-19 -0.00216021299)
(3.253500979e-07 4.407354331e-19 -0.002160263922)
(3.111962672e-07 4.48481701e-19 -0.002160313413)
(2.962511836e-07 4.493815409e-19 -0.002160361286)
(2.805791778e-07 4.430310303e-19 -0.002160407362)
(2.642239322e-07 4.48752923e-19 -0.002160451475)
(2.472443906e-07 4.482173454e-19 -0.00216049344)
(2.296782016e-07 4.388060707e-19 -0.002160533099)
(2.115795863e-07 4.349136636e-19 -0.002160570269)
(1.929905663e-07 4.444926576e-19 -0.0021606048)
(1.739615701e-07 4.388147272e-19 -0.002160636517)
(1.54530166e-07 4.344478404e-19 -0.002160665272)
(1.347407047e-07 4.303843798e-19 -0.002160690902)
(1.146318931e-07 4.267202182e-19 -0.002160713265)
(9.424551979e-08 4.168471629e-19 -0.00216073221)
(7.361251266e-08 4.068386848e-19 -0.002160747607)
(5.276949666e-08 4.097640061e-19 -0.002160759315)
(3.182285298e-08 4.122426352e-19 -0.002160767216)
(1.103529755e-08 4.145455539e-19 -0.002160771182)
(2.152355972e-08 -6.596782257e-19 -0.00215926032)
(5.596625325e-08 -7.682349516e-19 -0.002159264732)
(8.804569589e-08 -3.087770276e-19 -0.002159274437)
(1.204985264e-07 -9.817545965e-20 -0.00215928881)
(1.517562509e-07 2.223136263e-20 -0.002159307506)
(1.814227933e-07 8.627511854e-20 -0.002159330224)
(2.09349748e-07 1.417824276e-19 -0.002159356683)
(2.35478073e-07 1.780764013e-19 -0.002159386673)
(2.597603947e-07 1.819349093e-19 -0.00215941998)
(2.820781402e-07 2.046962311e-19 -0.00215945634)
(3.023706358e-07 1.539929083e-19 -0.002159495504)
(3.206799827e-07 1.860108079e-19 -0.002159537295)
(3.369683842e-07 3.091165678e-19 -0.002159581475)
(3.512350298e-07 3.150460403e-19 -0.002159627825)
(3.635383367e-07 2.967333753e-19 -0.002159676171)
(3.738836613e-07 2.458577274e-19 -0.002159726272)
(3.823458068e-07 1.940517269e-19 -0.002159777962)
(3.889625574e-07 2.14874479e-19 -0.002159831033)
(3.938059519e-07 2.725391625e-19 -0.002159885298)
(3.969291962e-07 3.193598334e-19 -0.002159940566)
(3.983960884e-07 3.387487974e-19 -0.002159996646)
(3.98287695e-07 3.646796975e-19 -0.002160053363)
(3.966780606e-07 3.600180347e-19 -0.002160110529)
(3.936381624e-07 3.646802745e-19 -0.002160167969)
(3.892395553e-07 3.753090366e-19 -0.002160225498)
(3.83548388e-07 3.905755247e-19 -0.00216028294)
(3.766310604e-07 4.109324549e-19 -0.002160340116)
(3.685657367e-07 4.386484281e-19 -0.002160396846)
(3.594113454e-07 4.742749189e-19 -0.00216045296)
(3.492464501e-07 4.885065387e-19 -0.002160508274)
(3.381224812e-07 5.077216161e-19 -0.002160562626)
(3.261049615e-07 5.369059571e-19 -0.002160615822)
(3.132382058e-07 5.542346587e-19 -0.002160667706)
(2.99586743e-07 5.354568064e-19 -0.002160718083)
(2.851929934e-07 5.288257203e-19 -0.002160766798)
(2.701145913e-07 5.303663319e-19 -0.00216081366)
(2.543922404e-07 5.287293808e-19 -0.002160858511)
(2.380751684e-07 5.2662166e-19 -0.002160901168)
(2.211984528e-07 5.313141827e-19 -0.002160941467)
(2.038116498e-07 5.045672338e-19 -0.002160979237)
(1.859581454e-07 4.861389787e-19 -0.002161014313)
(1.67672236e-07 4.773994755e-19 -0.002161046532)
(1.489952969e-07 4.717578789e-19 -0.002161075733)
(1.299599576e-07 4.684654741e-19 -0.002161101762)
(1.106078421e-07 4.59468299e-19 -0.002161124465)
(9.097273045e-08 4.567365409e-19 -0.002161143699)
(7.10847895e-08 4.551124715e-19 -0.002161159319)
(5.097701933e-08 4.622560504e-19 -0.002161171193)
(3.075259339e-08 4.72370202e-19 -0.002161179189)
(1.067170791e-08 4.86830834e-19 -0.002161183187)
(2.067414509e-08 -4.077901577e-20 -0.002159615811)
(5.374007369e-08 -1.037382587e-19 -0.002159620396)
(8.450489352e-08 -1.124196657e-19 -0.002159630587)