/*--------------------------------*- C++ -*----------------------------------*\
  =========                 |
  \\      /  F ield         | OpenFOAM: The Open Source CFD Toolbox
   \\    /   O peration     | Website:  https://openfoam.org
    \\  /    A nd           | Version:  7
     \\/     M anipulation  |
\*---------------------------------------------------------------------------*/
FoamFile
{
    version     2.0;
    format      ascii;
    class       volScalarField;
    location    "0.0015";
    object      generalizedNewtonian:nu;
}
// * * * * * * * * * * * * * * * * * * * * * * * * * * * * * * * * * * * * * //

dimensions      [0 2 -1 0 0 0 0];

internalField   nonuniform List<scalar> 
1167
(
910.1319624
906.8451913
900.3633533
890.4941323
877.8792638
862.7493943
845.3845832
826.097141
805.1826403
782.9054879
759.521429
735.3005975
710.4603089
685.213271
659.7828066
634.3121545
608.9920638
583.9321643
559.2776433
535.1121293
511.5404544
488.6146886
466.4100935
444.9483855
424.2829641
404.412628
385.3699227
367.1392036
349.7274789
333.1201387
317.3025338
302.2611503
287.9653629
274.4038227
261.5363101
249.3462021
885.3502996
882.1389876
875.8258731
866.195459
853.8640628
839.0941657
822.1692387
803.387539
783.0028415
761.2938036
738.5352517
714.9541283
690.772735
666.2303207
641.4841044
616.7327477
592.1160557
567.7749234
543.8269189
520.3682738
497.4854868
475.2424256
453.6938643
432.8806024
412.8286778
393.5656758
375.0896292
357.4171378
340.527215
324.4278341
309.0891653
294.5030486
280.6432855
267.4863898
255.0098591
243.1803078
231.9803388
221.3716308
211.3359543
201.837744
192.8550914
184.3583185
176.3227204
168.7241957
161.5363948
154.7391134
148.3064263
142.2224833
136.4644631
131.0053008
861.6523972
858.5031655
852.3354961
842.9302636
830.9080478
816.5127587
800.0160303
781.6825438
761.806115
740.6632022
718.4843555
695.5069939
671.9785679
648.076652
624.0056254
599.9342033
575.9971584
552.3476304
529.0709361
506.2923624
484.0614704
462.4712464
441.5469316
421.3483918
401.8884198
383.1962902
365.2730722
348.1226388
331.742404
316.1165463
301.2406889
287.0840798
273.6409435
260.8732455
248.7656848
237.2870076
226.4129613
216.1174599
206.3698963
197.149403
188.4218311
180.1705428
172.3617571
164.9788302
157.9921112
151.3838808
145.1293248
139.2114816
133.6109996
128.2984092
838.9723031
835.898852
829.8918378
820.7119437
808.980251
794.9170337
778.7993488
760.9181041
741.5494225
720.9228845
699.2940198
676.9178209
653.9896162
630.719665
607.3030387
583.872195
560.6037896
537.5958336
514.9810848
492.8320131
471.2428507
450.2590078
429.945085
410.3226963
391.4367548
373.2825596
355.8897832
339.2391305
323.3411225
308.1756797
293.7341376
279.9973281
266.9418961
254.5505922
242.7906045
231.6482171
221.0862049
211.0876125
201.6192855
192.6596916
184.1809949
176.1587989
168.5703469
161.3894926
154.5971092
148.1673053
142.0843052
136.3239989
130.8748677
125.7013344
817.265858
814.2573597
808.3970806
799.4117015
787.9327293
774.2005926
758.4789612
741.0431799
722.1248332
701.9975237
680.9217008
659.1047317
636.7625684
614.1149799
591.299707
568.5031893
545.852343
523.4768511
501.481658
479.9518812
458.9665804
438.5784593
418.8402133
399.7847438
381.436465
363.8117147
346.9130558
330.7492637
315.3047536
300.5830182
286.5550606
273.2174933
260.537627
248.5010333
237.0802598
226.2519085
215.9926175
206.2726687
197.0730648
188.3604919
180.1196023
172.3173685
164.9378516
157.9522025
151.3431721
145.0864544
139.1646779
133.5576249
128.2502897
123.2122142
796.3485017
793.3991948
787.6785632
778.9078915
767.7131127
754.3197197
738.9715498
721.923696
703.4588332
683.8392938
663.2793396
642.0076247
620.2524429
598.1713468
575.9568409
553.7648937
531.7171637
509.9559221
488.553504
467.6264581
447.2148829
427.4040989
408.2137826
389.7030349
371.8702384
354.7486027
338.3307075
322.6270292
307.6262689
293.3202748
279.6962843
266.7322064
254.4152254
242.7140502
231.6179323
221.0912469
211.1187741
201.6690691
192.7217989
184.2503068
176.2311756
168.6424274
161.4587208
154.6614384
148.2253772
142.1349764
136.3659321
130.9056634
125.7330357
120.8249247
776.1960225
773.3183878
767.745919
759.1838607
748.2494694
735.1447945
720.1354057
703.500566
685.5003325
666.3514579
646.2973633
625.5752247
604.3614038
582.8496592
561.226808
539.6123211
518.1663605
496.9801751
476.1704327
455.8061071
435.9656512
416.6964762
398.0500576
380.0482886
362.7221734
346.074684
330.1244813
314.857258
300.2835447
286.3768985
273.1370781
260.535937
248.5609047
237.1877095
226.3947203
216.160721
206.4576691
197.2678884
188.5595996
180.3181981
172.5117747
165.125448
158.130582
151.5109509
145.2423667
139.3081435
133.6873698
128.3644531
123.3228661
118.5363547
756.7155968
753.9008493
748.4584719
740.0688447
729.3646528
716.5676088
701.9302621
685.7145095
668.1377665
649.4589571
629.9218264
609.7168357
589.0427353
568.1052039
547.0358347
526.0019019
505.1236546
484.5112439
464.2679272
444.4593924
425.1679181
406.4307433
388.304231
370.8031495
353.960145
337.7792806
322.2717585
307.434748
293.2617169
279.7458265
266.867269
254.6171138
242.9665571
231.9073364
221.4059859
211.4495405
202.0076698
193.0621057
184.5867952
176.5600099
168.9600572
161.7630227
154.9503227
148.497915
142.390171
136.6036297
131.124856
125.9322647
121.0160646
116.3449024
737.6832732
734.9300161
729.6134631
721.4289104
711.0016369
698.5364306
684.2659444
668.4279917
651.2904434
633.0999772
614.0558795
594.365782
574.2456572
553.8482247
533.3414545
512.8777063
492.5577121
472.5168335
452.8192025
433.5648733
414.7989568
396.5896649
378.9588267
361.9504551
345.5691583
329.8428843
314.7600453
300.3378954
286.5533298
273.4100349
260.8838927
248.9653204
237.6327215
226.8672223
216.6493524
206.9535704
197.7631392
189.0485492
180.7955385
172.9737211
165.5696791
158.5545054
151.9136168
145.6224465
139.6656931
134.02191
128.6759633
123.6096188
118.8105406
114.2509207
719.0486615
716.3770765
711.2051487
703.2378223
693.0795093
680.9129937
666.9858513
651.5625744
634.8879945
617.1660622
598.6154489
579.4620483
559.8774381
540.0287297
520.0943972
500.181418
480.4322157
460.9377472
441.7931696
423.0726596
404.8348875
387.1326634
369.997064
353.4607303
337.5392937
322.2457635
307.5854543
293.5546509
280.1522037
267.3616503
255.1777285
243.5750763
232.5476668
222.0648587
212.1165895
202.6732057
193.719473
185.2294878
177.1840535
169.5613543
162.3395798
155.4998127
149.0197081
142.8832036
137.0682934
131.5609222
126.3400524
121.3941315
116.705489
112.2525172
700.7380077
698.1441427
693.099168
685.327656
675.4121567
663.5618187
650.0242841
635.0372646
618.8045091
601.5580873
583.5313739
564.9109095
545.8671311
526.5901021
507.2082466
487.8626388
468.6774115
449.7335763
431.1427459
412.9504553
395.2398641
378.0343465
361.3900431
345.3146416
329.8451321
314.9738944
300.7240849
287.0775071
274.0423834
261.5983273
249.7400003
238.4481997
227.708001
217.5014342
207.8063717
198.6068691
189.8765162
181.6012109
173.7527854
166.3190771
159.2713057
152.5969866
146.2707695
140.2793243
134.6004042
129.2204
124.1195901
119.2858577
114.7030442
110.349614
682.5096795
679.9959092
675.0698619
667.5182655
657.9012498
646.4099698
633.2752035
618.6987167
602.9259572
586.19358
568.6985469
550.6140516
532.1418948
513.4328876
494.6218369
475.8615125
457.2365661
438.8645739
420.8147214
403.1665168
385.9696994
369.271471
353.1049922
337.4973685
322.4643558
308.0193423
294.1626344
280.8987218
268.2155776
256.1116846
244.5661795
233.5753803
223.1122122
213.1703343
203.7205961
194.7519599
186.2383651
178.1641831
170.5072183
163.2486397
156.3689257
149.8481331
143.6695003
137.8129979
132.2638324
127.0025126
122.0160306
117.2869726
112.8048168
108.5442003
664.2258706
661.8202669
657.0425255
649.7462338
640.442425
629.3064866
616.5490661
602.4194659
587.1528914
570.9510774
553.9905393
536.4812533
518.5971173
500.4695104
482.2628408
464.0835406
446.0442402
428.2465984
410.7549295
393.6568946
376.9814173
360.7948707
345.1088842
329.9691752
315.3730115
301.3496263
287.8863235
274.9968719
262.6645513
250.8896545
239.6552792
228.9518611
218.7628626
209.0708062
199.8606263
191.1100277
182.8051416
174.921389
167.4464141
160.353897
153.6329263
147.2577419
141.2175387
135.4889835
130.0607784
124.9119641
120.0317468
115.4017689
111.0130259
106.8399754
645.8216127
643.5229526
638.87961
631.8309964
622.8165944
612.0325864
599.7107633
586.0785144
571.3383856
555.6723087
539.2940248
522.39437
505.1057583
487.6000036
470.0112889
452.4410226
435.0164515
417.8053992
400.9022388
384.3554427
368.2268392
352.5507823
337.3653915
322.6897197
308.5451232
294.9367867
281.8748863
269.352838
257.3731633
245.9205684
234.9940743
224.5717276
214.6498219
205.2021792
196.2224748
187.6844995
179.5775173
171.8788701
164.5738969
157.6423998
151.0678462
144.8326795
138.9196615
133.3131095
127.9958598
122.9538281
118.1709782
113.6347184
109.3312963
105.2414268
627.0302154
624.8343813
620.3076429
613.5089318
604.8255998
594.4573512
582.6150364
569.4957544
555.2902276
540.2147807
524.4650125
508.1830627
491.5385023
474.6924666
457.7437734
440.8271255
424.0319107
407.4438112
391.1446249
375.1783335
359.6137208
344.4699388
329.7992691
315.6041553
301.9203073
288.7401422
276.0840394
263.9387875
252.3116151
241.1878813
230.5648668
220.4275152
210.7646276
201.5621717
192.8033423
184.4748344
176.5568313
169.0371889
161.8937679
155.1153909
148.6794226
142.575952
136.7823563
131.2896192
126.075847
121.1327135
116.4401287
111.9902164
107.7654228
103.7524636
607.5665447
605.4969783
601.1265373
594.6319485
586.3274449
576.4034344
565.04498
552.4527346
538.8402607
524.4040007
509.2959026
493.6846207
477.7394268
461.5730085
445.3143131
429.0846787
412.9570203
397.0340014
381.3645769
366.0209227
351.0388618
336.4654827
322.3232881
308.6407586
295.4282156
282.7010985
270.4587499
258.7077735
247.4391555
236.6549094
226.339513
216.4914429
207.089912
198.1324818
189.5949223
181.4722992
173.7417995
166.3944999
159.4097129
152.7757836
146.4745439
140.4928207
134.8141451
129.4247225
124.3095213
119.455218
114.8477768
110.4747599
106.3236728
102.3791547
587.3274279
585.3922367
581.2004039
575.0228771
567.1036186
557.6177989
546.7694235
534.7637973
521.7929824
508.0152659
493.5973262
478.7135619
463.4949987
448.0617732
432.5487944
417.0383429
401.6325933
386.4050937
371.4134698
356.7248624
342.3673874
328.3959413
314.8190566
301.6776538
288.9682899
276.7182032
264.9168552
253.579067
242.6919048
232.2605229
222.2711095
212.7200948
203.5942677
194.8840041
186.5767888
178.6591441
171.1196929
163.941864
157.1148882
150.6210318
144.450509
138.5849563
133.0151633
127.7227542
122.6992028
117.9269826
113.3975542
109.0946546
105.0104342
101.1278677
566.1097733
564.296021
560.2905053
554.4194756
546.8861833
537.8829697
527.6023972
516.2282817
503.9205667
490.8447188
477.1744379
463.057717
448.6082507
433.9663775
419.2336064
404.4974334
389.8612045
375.3735996
361.1129617
347.1164336
333.4369132
320.0998816
307.1385033
294.5678668
282.4069612
270.6611693
259.3400251
248.4407761
237.9677729
227.9120959
218.2742319
209.0400194
200.2085742
191.7617112
183.697748
175.9966789
168.6559763
161.6548365
154.98821
148.6378364
142.5964137
136.84725
131.381635
126.1840938
121.2456039
116.5515246
112.092651
107.8549714
103.8301618
100.0042406
543.6506924
541.9461024
538.15359
532.6143892
525.5177836
517.0438642
507.3655742
496.6396001
485.0316431
472.7103924
459.8341967
446.5153209
432.8890729
419.0818465
405.1731586
391.2695902
377.4373501
363.7444579
350.2542462
337.0012769
324.0412821
311.3874806
299.0832506
287.1297492
275.5576641
264.3598478
253.5572381
243.1375577
233.1137035
223.4718553
214.2163205
205.3336407
196.8221556
188.6691174
180.8684422
173.4090051
166.2810868
159.4745825
152.9781397
146.7827564
140.8758814
135.2490022
129.8890313
124.7879138
119.9327825
115.3153285
110.9230284
106.7474369
102.7767893
99.00382245
519.8468376
518.2503069
514.7247103
509.5421336
502.9059351
494.9787925
485.9072836
475.8574063
464.9922259
453.4677607
441.4034078
428.9297457
416.1767576
403.2329126
390.1962491
377.1603326
364.1779952
351.3271048
338.6451782
326.1873331
313.9813405
302.0622517
290.4495846
279.1633726
268.2149887
257.6143099
247.3650437
237.4718777
227.9325768
218.7481721
209.9107869
201.4198477
193.2635037
185.4402319
177.9361308
170.7494301
163.8642046
157.2787002
150.9766993
144.9567804
139.2026669
133.7122452
128.4702697
123.4740119
118.7092277
114.1722433
109.8493015
105.7366543
101.8204394
98.09851312
494.7474504
493.2432417
490.0167046
485.1826024
479.0082044
471.6217743
463.1803148
453.8381161
443.7454781
433.0273241
421.8079964
410.2159035
398.3546594
386.3116772
374.187241
362.0428124
349.9500691
337.9668241
326.1312488
314.4979497
303.0833327
291.9310091
281.0465176
270.4609642
260.1726921
250.2029408
240.5444092
231.21245
222.1954592
213.5038886
205.123169
197.0592617
189.2974758
181.839005
174.6710792
167.7908406
161.1867779
154.8538305
148.7822838
142.9657204
137.395638
132.0651435
126.9667809
122.0938676
117.4391151
112.9959281
108.7571674
104.7168006
100.8669217
97.19987917
468.4268879
466.9929244
464.0885718
459.5853239
453.8695793
447.0476237
439.2569398
430.6403276
421.3234581
411.4266689
401.0723404
390.3757933
379.4194024
368.3003643
357.0977498
345.8685181
334.6862984
323.5875144
312.6258249
301.8304279
291.2354336
280.8641022
270.7353551
260.866377
251.2656664
241.9439284
232.9041247
224.1514723
215.6855907
207.5058754
199.610546
191.9948176
184.655965
177.5864548
170.7834639
164.2367552
157.943343
151.8923369
146.0813496
140.4990277
135.1434124
130.0035396
125.0782948
120.3576766
115.8403838
111.5174219
107.3876635
103.4440047
99.68552414
96.09123451
441.0456968
439.6678099
437.1057508
432.9408055
427.6984044
421.4481189
414.312217
406.4135292
397.8703814
388.7989214
379.3168197
369.5086805
359.4616164
349.2699507
338.9874454
328.6830195
318.4084706
308.2025274
298.1162238
288.1674766
278.3974797
268.8152283
259.4499727
250.3051098
241.4004428
232.7346128
224.3218243
216.1570886
208.2500584
200.5918934
193.190033
186.0326582
179.1255042
172.4555409
166.0268074
159.8257202
153.8537372
148.0992027
142.5618343
137.2313085
132.1064853
127.1786245
122.4468497
117.9036003
113.5482042
109.3739791
105.3811803
101.5653946
97.93133224
94.43893263
273.5868159
264.6303598
255.836568
247.2266549
238.8063702
230.5920391
222.58388
214.7939749
207.2196933
199.8680262
192.7348124
185.8232258
179.1284174
172.6504427
166.384833
160.328731
154.4778369
148.828052
143.375782
138.116098
133.0460153
128.1606106
123.4580115
118.9341139
114.5873492
110.4144177
106.4139553
102.5836326
98.92495032
95.44309438
92.08423979
)
;

boundaryField
{
    front_top
    {
        type            wedge;
    }
    front_middle
    {
        type            wedge;
    }
    front_bottom
    {
        type            wedge;
    }
    back_top
    {
        type            wedge;
    }
    back_middle
    {
        type            wedge;
    }
    back_bottom
    {
        type            wedge;
    }
    axis_top
    {
        type            symmetryPlane;
    }
    axis_middle
    {
        type            symmetryPlane;
    }
    axis_bottom
    {
        type            symmetryPlane;
    }
    wall_top
    {
        type            calculated;
        value           nonuniform List<scalar> 
23
(
128.3657858
125.7291346
123.2013695
120.7764241
118.4502412
116.2200679
114.0858887
112.045152
110.096854
108.2415267
106.4816566
104.8208721
103.2613379
101.8086471
100.4685085
99.24811968
98.15219426
97.17537283
96.29143931
95.41402459
94.33190389
92.72001219
90.42258071
)
;
    }
    wall_middle
    {
        type            calculated;
        value           nonuniform 0();
    }
    wall_bottom
    {
        type            calculated;
        value           nonuniform 0();
    }
    inlet
    {
        type            calculated;
        value           nonuniform 0();
    }
    outlet
    {
        type            calculated;
        value           nonuniform 0();
    }
    procBoundary7to6
    {
        type            processor;
        value           nonuniform List<scalar> 
51
(
412.9166371
411.5923154
409.3882924
405.5585638
400.7824923
395.0945744
388.5931089
381.3961297
373.6157176
365.3632935
356.7304032
347.7992757
338.6578233
329.3729363
320.0007852
310.6092636
301.2310072
291.9149842
282.6900579
282.6900579
258.2370207
250.0790651
242.0627953
234.1953522
226.4929945
218.9593948
211.6056002
204.4327205
197.4479796
190.6493232
184.0421218
177.6217809
171.3922812
165.3476172
159.4911426
153.8150773
148.3223557
143.0050125
137.866286
132.8979863
128.1036233
123.4754765
119.0176815
114.7234634
110.5965555
106.6310704
102.8299877
99.18809829
95.71151895
92.40430273
89.20372879
)
;
    }
    procBoundary7to8
    {
        type            processor;
        value           nonuniform List<scalar> 
51
(
936.1587306
932.7806734
926.1113588
915.9822222
903.0294232
887.5011896
869.7074436
849.9167168
828.4280901
805.5401604
781.5250562
756.6181617
731.0825075
705.1198211
678.9370577
652.7328837
626.6467584
600.8534724
575.4408151
550.5531212
526.2452879
502.6229603
479.7166835
457.5942382
436.2707761
415.7792981
396.1282017
377.3198897
359.3556988
342.2157515
325.9007757
310.3759759
295.6327408
281.6368495
268.3658763
255.7911609
237.7976201
237.7976201
226.8663486
216.5228818
206.7365146
197.4838194
188.7305475
180.4581372
172.6324011
165.236307
158.2387513
151.622288
145.3616911
139.4415791
133.8262347
)
;
    }
}


// ************************************************************************* //
