/*--------------------------------*- C++ -*----------------------------------*\
  =========                 |
  \\      /  F ield         | OpenFOAM: The Open Source CFD Toolbox
   \\    /   O peration     | Website:  https://openfoam.org
    \\  /    A nd           | Version:  7
     \\/     M anipulation  |
\*---------------------------------------------------------------------------*/
FoamFile
{
    version     2.0;
    format      ascii;
    class       surfaceScalarField;
    location    "0.0015";
    object      phi;
}
// * * * * * * * * * * * * * * * * * * * * * * * * * * * * * * * * * * * * * //

dimensions      [1 0 -1 0 0 0 0];

internalField   nonuniform List<scalar> 
2260
(
2.235064347e-15
4.56071144e-11
8.747880647e-15
1.334536173e-10
1.921792744e-14
2.164052434e-10
3.329170784e-14
2.946659245e-10
5.059144971e-14
3.684326418e-10
7.071861268e-14
4.378954988e-10
9.332370292e-14
5.032379377e-10
1.179607643e-13
5.646369388e-10
1.44225489e-13
6.222630966e-10
1.717582583e-13
6.76280793e-10
2.001758758e-13
7.268484514e-10
2.290624205e-13
7.741186729e-10
2.581662192e-13
8.182382268e-10
2.870751939e-13
8.593485283e-10
3.15509566e-13
8.975855525e-10
3.431976e-13
9.330800002e-10
3.697980039e-13
9.659577441e-10
3.951791424e-13
9.963394722e-10
4.189813888e-13
1.024341462e-09
4.411457827e-13
1.050075091e-09
4.613456971e-13
1.073647626e-09
4.795602222e-13
1.095161737e-09
4.95535152e-13
1.11471627e-09
5.092480948e-13
1.132405739e-09
5.205517057e-13
1.148321135e-09
5.293484097e-13
1.16254946e-09
5.356309933e-13
1.175174338e-09
5.392551357e-13
1.186275801e-09
5.403447324e-13
1.195930495e-09
5.386726744e-13
1.204212114e-09
5.344345036e-13
1.211190897e-09
5.274664703e-13
1.216934521e-09
5.178971054e-13
1.221507375e-09
5.057089159e-13
1.224971509e-09
4.909190984e-13
1.22738594e-09
1.228807378e-09
2.247110435e-15
4.560486729e-11
8.796365321e-15
1.33447068e-10
1.93240581e-14
2.163947157e-10
3.347072303e-14
2.946517778e-10
5.087976252e-14
3.684152327e-10
7.115184238e-14
4.378752267e-10
9.386923747e-14
5.032152203e-10
1.186229025e-13
5.646121851e-10
1.450500304e-13
6.222366695e-10
1.727355469e-13
6.762531075e-10
2.012606778e-13
7.268199263e-10
2.303338171e-13
7.740895997e-10
2.595560201e-13
8.182090046e-10
2.885762698e-13
8.59319508e-10
3.171645079e-13
8.975569643e-10
3.449066294e-13
9.330522581e-10
3.716754818e-13
9.659309753e-10
3.970737529e-13
9.96314074e-10
4.210279606e-13
1.024317508e-09
4.43170685e-13
1.050052949e-09
4.63491615e-13
1.073627305e-09
4.816537002e-13
1.095143575e-09
4.977045206e-13
1.114700219e-09
5.113463078e-13
1.132392098e-09
5.226523706e-13
1.148309829e-09
5.31364652e-13
1.162540747e-09
5.375772288e-13
1.175168125e-09
5.411564679e-13
1.186272222e-09
5.420981865e-13
1.195929553e-09
5.404125781e-13
1.204213799e-09
5.359925586e-13
1.211195317e-09
5.290016872e-13
1.216941511e-09
5.192334114e-13
1.221517144e-09
5.069475923e-13
1.224983794e-09
4.92007586e-13
1.22740088e-09
4.745828955e-13
1.228824803e-09
4.546520602e-13
1.229310018e-09
4.322744634e-13
1.228908151e-09
4.075743372e-13
1.227668937e-09
3.804967906e-13
1.225639733e-09
3.512906676e-13
1.222865827e-09
3.198061142e-13
1.219390706e-09
2.863434276e-13
1.215255551e-09
2.507662207e-13
1.21050022e-09
2.133543636e-13
1.20516222e-09
1.740292067e-13
1.199277938e-09
1.329961736e-13
1.192881561e-09
9.022983353e-14
1.186006318e-09
4.5894424e-14
1.17868334e-09
1.170942874e-09
2.263942188e-15
4.560260334e-11
8.863112369e-15
1.334404689e-10
1.94773625e-14
2.163841015e-10
3.374683433e-14
2.946375084e-10
5.128560471e-14
3.68397694e-10
7.169453667e-14
4.378548178e-10
9.455912981e-14
5.031923557e-10
1.195224282e-13
5.645872218e-10
1.461322159e-13
6.222100597e-10
1.739729847e-13
6.762252667e-10
2.027217627e-13
7.267911775e-10
2.319775292e-13
7.74060344e-10
2.61346691e-13
8.181796354e-10
2.906020852e-13
8.592902526e-10
3.192944813e-13
8.975282719e-10
3.472447863e-13
9.330243078e-10
3.740904152e-13
9.659041297e-10
3.996426e-13
9.962885218e-10
4.236345965e-13
1.024293516e-09
4.458919714e-13
1.050030691e-09
4.662078118e-13
1.073606989e-09
4.844594344e-13
1.095125323e-09
5.004663064e-13
1.114684212e-09
5.141836166e-13
1.13237838e-09
5.253846016e-13
1.148298628e-09
5.341543112e-13
1.162531978e-09
5.402380511e-13
1.175162041e-09
5.437957576e-13
1.186268664e-09
5.445947689e-13
1.195928754e-09
5.427942964e-13
1.2042156e-09
5.382645382e-13
1.211199847e-09
5.31067052e-13
1.216948709e-09
5.21232099e-13
1.221526979e-09
5.087239773e-13
1.224996303e-09
4.937203158e-13
1.227415884e-09
4.760584067e-13
1.228842464e-09
4.560062537e-13
1.229330071e-09
4.334240822e-13
1.228930733e-09
4.085479209e-13
1.227693813e-09
3.813268584e-13
1.225666954e-09
3.519051967e-13
1.222895249e-09
3.203333458e-13
1.219422278e-09
2.866621332e-13
1.215289222e-09
2.510403338e-13
1.210535842e-09
2.134564882e-13
1.205199804e-09
1.741179306e-13
1.199317277e-09
1.329539727e-13
1.192922725e-09
9.021751085e-14
1.186049054e-09
4.580621173e-14
1.178727751e-09
1.17098868e-09
2.285663314e-15
4.560031768e-11
8.946144136e-15
1.334338084e-10
1.965234332e-14
2.163733953e-10
3.404091723e-14
2.946231198e-10
5.172167792e-14
3.683800132e-10
7.230205934e-14
4.378342374e-10
9.539659311e-14
5.031692612e-10
1.205465323e-13
5.645620719e-10
1.473378998e-13
6.221832683e-10
1.754253061e-13
6.761971793e-10
2.043924982e-13
7.267622103e-10
2.338255811e-13
7.740309109e-10
2.634719452e-13
8.18149989e-10
2.92870572e-13
8.59260854e-10
3.217637927e-13
8.974993787e-10
3.49862623e-13
9.32996209e-10
3.768375845e-13
9.658771547e-10
4.025311427e-13
9.962628282e-10
4.265912202e-13
1.024269456e-09
4.489591024e-13
1.050008323e-09
4.693000915e-13
1.073586648e-09
4.876128306e-13
1.095107011e-09
5.03625038e-13
1.1146682e-09
5.173177083e-13
1.132364688e-09
5.285069852e-13
1.148287439e-09
5.371740179e-13
1.162523311e-09
5.432565788e-13
1.175155959e-09
5.466619874e-13
1.186265259e-09
5.474559905e-13
1.19592796e-09
5.454626239e-13
1.204217593e-09
5.40870495e-13
1.211204439e-09
5.334610663e-13
1.216956118e-09
5.234856698e-13
1.221536954e-09
5.108186757e-13
1.22500897e-09
4.955919952e-13
1.22743111e-09
4.778107081e-13
1.228860246e-09
4.575081407e-13
1.229350373e-09
4.348288663e-13
1.228953412e-09
4.096984814e-13
1.227718943e-09
3.823845797e-13
1.225694268e-09
3.527229842e-13
1.22292491e-09
3.210292126e-13
1.219453972e-09
2.871718899e-13
1.21532308e-09
2.514227762e-13
1.210571591e-09
2.137200895e-13
1.205237507e-09
1.742632534e-13
1.199356734e-09
1.330451185e-13
1.192963943e-09
9.022438747e-14
1.186091875e-09
4.583163974e-14
1.178772144e-09
1.171034512e-09
2.305554804e-15
4.559801213e-11
9.024866883e-15
1.334270891e-10
1.98232933e-14
2.163625969e-10
3.433892457e-14
2.946086042e-10
5.219340562e-14
3.683621587e-10
7.296883855e-14
4.378134619e-10
9.623592238e-14
5.031459941e-10
1.215688491e-13
5.64536739e-10
1.48610305e-13
6.221562269e-10
1.769201151e-13
6.761688695e-10
2.06073271e-13
7.267330572e-10
2.357712933e-13
7.740012129e-10
2.655779713e-13
8.181201824e-10
2.951469478e-13
8.59231285e-10
3.242413057e-13
8.974702843e-10
3.524374838e-13
9.329680128e-10
3.796127943e-13
9.658499794e-10
4.05347282e-13
9.962370937e-10
4.295802133e-13
1.024245223e-09
4.519374509e-13
1.049985966e-09
4.724091361e-13
1.073566176e-09
4.906726688e-13
1.095088747e-09
5.067671137e-13
1.114652106e-09
5.203577367e-13
1.132351097e-09
5.315677943e-13
1.148276229e-09
5.401114549e-13
1.162514767e-09
5.461404457e-13
1.17514993e-09
5.494358128e-13
1.186261964e-09
5.500860493e-13
1.19592731e-09
5.480042718e-13
1.204219675e-09
5.431999653e-13
1.211209244e-09
5.357328237e-13
1.216963586e-09
5.255297253e-13
1.221547157e-09
5.127883713e-13
1.225021711e-09
4.973201313e-13
1.227446578e-09
4.794049941e-13
1.228878161e-09
4.589022601e-13
1.229370876e-09
4.360344421e-13
1.22897628e-09
4.107605927e-13
1.227744217e-09
3.832176198e-13
1.225721811e-09
3.534639211e-13
1.222954664e-09
3.215480032e-13
1.219485888e-09
2.876263e-13
1.215357001e-09
2.516872698e-13
1.21060753e-09
2.139472237e-13
1.205275247e-09
1.743372693e-13
1.199396344e-09
1.331213577e-13
1.193005159e-09
9.019955328e-14
1.186134797e-09
4.586653557e-14
1.178816477e-09
1.171080378e-09
2.325032864e-15
4.559568709e-11
9.101635865e-15
1.334203125e-10
1.999871827e-14
2.163516998e-10
3.464214286e-14
2.945939607e-10
5.263168361e-14
3.683441692e-10
7.355177436e-14
4.377925419e-10
9.6976004e-14
5.031225699e-10
1.22534738e-13
5.645111802e-10
1.497643359e-13
6.221289973e-10
1.782357157e-13
6.761403981e-10
2.07613807e-13
7.267036791e-10
2.374718917e-13
7.739713548e-10
2.67398084e-13
8.180902562e-10
2.971820668e-13
8.592015011e-10
3.263541539e-13
8.974411122e-10
3.547213567e-13
9.329396456e-10
3.819325633e-13
9.658227682e-10
4.077733404e-13
9.962112529e-10
4.32007904e-13
1.024220989e-09
4.544215398e-13
1.049963553e-09
4.748618496e-13
1.073545736e-09
4.931488132e-13
1.09507046e-09
5.091419384e-13
1.114636113e-09
5.227364153e-13
1.132337503e-09
5.338135198e-13
1.148265152e-09
5.423652779e-13
1.162506215e-09
5.482252035e-13
1.17514407e-09
5.514994488e-13
1.186258689e-09
5.519555344e-13
1.195926854e-09
5.497982826e-13
1.204221832e-09
5.448106992e-13
1.211214231e-09
5.372073183e-13
1.216971189e-09
5.26878679e-13
1.221557486e-09
5.139337627e-13
1.225034656e-09
4.983857895e-13
1.227462126e-09
4.802561769e-13
1.22889629e-09
4.596915873e-13
1.229391441e-09
4.366132682e-13
1.228999358e-09
4.112879256e-13
1.227769542e-09
3.835527704e-13
1.225749546e-09
3.537277981e-13
1.222984489e-09
3.216760669e-13
1.21951794e-09
2.876767768e-13
1.215391001e-09
2.516661464e-13
1.21064354e-09
2.13853264e-13
1.20531306e-09
1.742305382e-13
1.199435966e-09
1.329671325e-13
1.193046422e-09
9.009564053e-14
1.186177668e-09
4.576018451e-14
1.178860812e-09
1.171126139e-09
2.34099535e-15
4.55933461e-11
9.162447516e-15
1.33413491e-10
2.012412299e-14
2.163407381e-10
3.484925282e-14
2.945792356e-10
5.293197977e-14
3.683260865e-10
7.397026378e-14
4.377715036e-10
9.756195591e-14
5.030989782e-10
1.232378042e-13
5.644855044e-10
1.505693546e-13
6.221016657e-10
1.791945855e-13
6.761117729e-10
2.086825548e-13
7.266741911e-10
2.385962065e-13
7.739414411e-10
2.686778231e-13
8.180601745e-10
2.984824096e-13
8.591716965e-10
3.277173396e-13
8.974118773e-10
3.561123183e-13
9.329112506e-10
3.833014854e-13
9.65795579e-10
4.091704757e-13
9.96185384e-10
4.33322441e-13
1.024196837e-09
4.557481309e-13
1.049941127e-09
4.76074505e-13
1.07352541e-09
4.943336066e-13
1.095052201e-09
5.101757236e-13
1.114620271e-09
5.237048511e-13
1.132323973e-09
5.346493765e-13
1.148254207e-09
5.43085908e-13
1.162497779e-09
5.488381163e-13
1.175138318e-09
5.519367092e-13
1.186255591e-09
5.523223888e-13
1.195926468e-09
5.499662784e-13
1.204224188e-09
5.449418561e-13
1.211219256e-09
5.371511745e-13
1.21697898e-09
5.267954737e-13
1.221567841e-09
5.136745518e-13
1.225047777e-09
4.980698655e-13
1.227477731e-09
4.798299667e-13
1.22891453e-09
4.591776766e-13
1.229412093e-09
4.360622553e-13
1.229022474e-09
4.106277901e-13
1.227794977e-09
3.829209311e-13
1.225777253e-09
3.530010874e-13
1.223014409e-09
3.210123821e-13
1.219549928e-09
2.869570617e-13
1.215425056e-09
2.510404895e-13
1.210679457e-09
2.132090314e-13
1.205350891e-09
1.737176397e-13
1.199475458e-09
1.324819263e-13
1.193087658e-09
8.979008318e-14
1.18622036e-09
4.553367096e-14
1.178905069e-09
1.171171672e-09
2.346180161e-15
4.559099992e-11
9.183292036e-15
1.334066539e-10
2.01666966e-14
2.163297547e-10
3.49248425e-14
2.945644775e-10
5.306378739e-14
3.683079475e-10
7.4160783e-14
4.377504066e-10
9.777035661e-14
5.030753686e-10
1.234546496e-13
5.644598201e-10
1.508364099e-13
6.22074284e-10
1.79471726e-13
6.760831376e-10
2.089099003e-13
7.266447529e-10
2.388417587e-13
7.739115093e-10
2.688557195e-13
8.180301606e-10
2.985642771e-13
8.591419879e-10
3.277592611e-13
8.973826823e-10
3.559898283e-13
9.328830201e-10
3.831325934e-13
9.657684362e-10
4.087955575e-13
9.96159721e-10
4.32868923e-13
1.024172763e-09
4.55068024e-13
1.049918928e-09
4.752920055e-13
1.073505186e-09
4.932949394e-13
1.095034198e-09
5.090378176e-13
1.114604528e-09
5.22317435e-13
1.132310694e-09
5.331698827e-13
1.148243355e-09
5.413656486e-13
1.162489583e-09
5.470398551e-13
1.175132643e-09
5.499178488e-13
1.186252713e-09
5.502133567e-13
1.195926173e-09
5.47703604e-13
1.204226698e-09
5.425795213e-13
1.21122438e-09
5.34731811e-13
1.216986827e-09
5.242599931e-13
1.221578313e-09
5.111680681e-13
1.225060869e-09
4.954776412e-13
1.227493422e-09
4.773194544e-13
1.228932689e-09
4.566231791e-13
1.229432789e-09
4.33634633e-13
1.229045462e-09
4.082053733e-13
1.227820406e-09
3.80647785e-13
1.225804811e-09
3.508072274e-13
1.22304425e-09
3.189827411e-13
1.219581753e-09
2.850880598e-13
1.215458951e-09
2.493543758e-13
1.210715191e-09
2.117530499e-13
1.205388492e-09
1.72476386e-13
1.199514734e-09
1.315384888e-13
1.193128596e-09
8.910729203e-14
1.186262791e-09
4.520692529e-14
1.178948969e-09
1.171216879e-09
2.339460053e-15
4.558866046e-11
9.15774425e-15
1.333998356e-10
2.011634564e-14
2.163187961e-10
3.483937172e-14
2.945497544e-10
5.291419064e-14
3.682898727e-10
7.391683069e-14
4.377294039e-10
9.74078683e-14
5.030518776e-10
1.230038726e-13
5.644342241e-10
1.502442789e-13
6.220470436e-10
1.7867512e-13
6.760547067e-10
2.079478163e-13
7.266154802e-10
2.376678213e-13
7.738817893e-10
2.673960449e-13
8.180004324e-10
2.969118083e-13
8.591124722e-10
3.257713522e-13
8.973538228e-10
3.537413596e-13
9.3285505e-10
3.805425983e-13
9.65741635e-10
4.058903825e-13
9.961343732e-10
4.296445678e-13
1.024149009e-09
4.515075452e-13
1.049897065e-09
4.714159039e-13
1.073485277e-09
4.890879689e-13
1.095016526e-09
5.045354322e-13
1.11458908e-09
5.175393739e-13
1.13229769e-09
5.281103377e-13
1.148232784e-09
5.361050593e-13
1.162481588e-09
5.415103674e-13
1.175127238e-09
5.442823126e-13
1.186249941e-09
5.443666881e-13
1.195926088e-09
5.418370327e-13
1.204229228e-09
5.365836232e-13
1.211229633e-09
5.287957723e-13
1.216994615e-09
5.182742569e-13
1.221588835e-09
5.052917867e-13
1.225073851e-09
4.896762554e-13
1.227509037e-09
4.716622801e-13
1.228950703e-09
4.511694281e-13
1.229453282e-09
4.283607612e-13
1.229068271e-09
4.032506032e-13
1.227845516e-09
3.759200014e-13
1.225832141e-09
3.46479565e-13
1.22307369e-09
3.149562732e-13
1.219613276e-09
2.815235024e-13
1.215492383e-09
2.461538942e-13
1.21075056e-09
2.090724971e-13
1.205425574e-09
1.702220377e-13
1.199553585e-09
1.298641861e-13
1.193168954e-09
8.79188835e-14
1.186304737e-09
4.465297167e-14
1.178992235e-09
1.171261532e-09
2.316400023e-15
4.558634406e-11
9.065992156e-15
1.33393086e-10
1.990757408e-14
2.163079545e-10
3.446200212e-14
2.945352e-10
5.232100904e-14
3.682720137e-10
7.30713371e-14
4.377086536e-10
9.630573703e-14
5.030286432e-10
1.215638147e-13
5.64408966e-10
1.483975611e-13
6.220202098e-10
1.764316957e-13
6.760266726e-10
2.05276262e-13
7.265866357e-10
2.344712018e-13
7.738525943e-10
2.637354102e-13
8.179711682e-10
2.926868114e-13
8.590835207e-10
3.209733133e-13
8.973255363e-10
3.484103948e-13
9.32827613e-10
3.745777346e-13
9.657154677e-10
3.994246038e-13
9.961095263e-10
4.225497701e-13
1.024125884e-09
4.439307898e-13
1.049875684e-09
4.632306807e-13
1.073465977e-09
4.804734092e-13
1.094999283e-09
4.953841048e-13
1.11457417e-09
5.080382774e-13
1.132285036e-09
5.181595613e-13
1.148222662e-09
5.259004561e-13
1.162473847e-09
5.309652347e-13
1.175122173e-09
5.335689239e-13
1.186247337e-09
5.334785232e-13
1.195926179e-09
5.308745141e-13
1.204231832e-09
5.256344069e-13
1.211234873e-09
5.178609224e-13
1.217002389e-09
5.075331299e-13
1.221599163e-09
4.946831679e-13
1.225086701e-09
4.794084099e-13
1.227524312e-09
4.616572944e-13
1.228968454e-09
4.416343945e-13
1.229473305e-09
4.192156834e-13
1.22909069e-09
3.946849938e-13
1.227870047e-09
3.678699822e-13
1.225858957e-09
3.390907422e-13
1.223102469e-09
3.082160951e-13
1.219644151e-09
2.755079132e-13
1.215525092e-09
2.408934803e-13
1.210785175e-09
2.045970526e-13
1.20546187e-09
1.665912599e-13
1.199591591e-09
1.270777362e-13
1.193208467e-09
8.60436291e-14
1.186345771e-09
4.368362888e-14
1.179034595e-09
1.171305216e-09
2.266569557e-15
4.558407749e-11
8.871243708e-15
1.333864814e-10
1.947562402e-14
2.162973501e-10
3.370651368e-14
2.945209691e-10
5.117482604e-14
3.682545454e-10
7.147388074e-14
4.376883545e-10
9.414513448e-14
5.030059719e-10
1.187560852e-13
5.643843551e-10
1.449189704e-13
6.219940469e-10
1.722402885e-13
6.759993513e-10
2.002525784e-13
7.265586234e-10
2.286292479e-13
7.738242177e-10
2.570310694e-13
8.179427663e-10
2.850313539e-13
8.590555205e-10
3.124654108e-13
8.972981022e-10
3.389171618e-13
9.328011612e-10
3.642149151e-13
9.656901699e-10
3.881020028e-13
9.960856393e-10
4.103707412e-13
1.024103615e-09
4.308618742e-13
1.049855193e-09
4.49370447e-13
1.073447469e-09
4.658338029e-13
1.09498282e-09
4.80083341e-13
1.11455992e-09
4.92080918e-13
1.132273038e-09
5.017123603e-13
1.148213031e-09
5.089372309e-13
1.162466622e-09
5.13720364e-13
1.17511739e-09
5.159969931e-13
1.18624506e-09
5.158314772e-13
1.195926344e-09
5.131160148e-13
1.204234547e-09
5.080157345e-13
1.211239973e-09
5.003446024e-13
1.21701006e-09
4.903577689e-13
1.221609149e-09
4.778533005e-13
1.225099206e-09
4.63087051e-13
1.227539078e-09
4.459290379e-13
1.228985612e-09
4.265698709e-13
1.229492664e-09
4.049693786e-13
1.22911229e-09
3.812382954e-13
1.227893778e-09
3.554293199e-13
1.225884765e-09
3.276007243e-13
1.223130298e-09
2.978692398e-13
1.219673882e-09
2.662391336e-13
1.215556722e-09
2.328801079e-13
1.210818534e-09
1.977672145e-13
1.205496983e-09
1.611098549e-13
1.199628248e-09
1.228618793e-13
1.193246715e-09
8.324217028e-14
1.18638539e-09
4.221577402e-14
1.179075621e-09
1.171347432e-09
2.184767815e-15
4.558189272e-11
8.55210897e-15
1.33380114e-10
1.877622193e-14
2.16287126e-10
3.249799663e-14
2.945072473e-10
4.932057811e-14
3.682377228e-10
6.882548012e-14
4.376688496e-10
9.058739178e-14
5.0298421e-10
1.14221925e-13
5.643607205e-10
1.393286988e-13
6.219689402e-10
1.654462837e-13
6.759732337e-10
1.92217185e-13
7.265318525e-10
2.193325765e-13
7.737971023e-10
2.463403543e-13
8.179157586e-10
2.730106201e-13
8.590288502e-10
2.990225968e-13
8.972720902e-10
3.240676125e-13
9.327761162e-10
3.480158209e-13
9.656662217e-10
3.704978156e-13
9.960631573e-10
3.915190546e-13
1.024082594e-09
4.106922917e-13
1.049836019e-09
4.28098416e-13
1.073430063e-09
4.434134132e-13
1.094967505e-09
4.567539629e-13
1.114546579e-09
4.678170841e-13
1.132261975e-09
4.767729797e-13
1.148204075e-09
4.833245887e-13
1.162460071e-09
4.876847305e-13
1.17511303e-09
4.896142245e-13
1.186243131e-09
4.89298203e-13
1.19592666e-09
4.865923626e-13
1.204237253e-09
4.816159441e-13
1.21124495e-09
4.743101953e-13
1.217017366e-09
4.647293319e-13
1.22161873e-09
4.529210731e-13
1.225111014e-09
4.388610581e-13
1.227553138e-09
4.226925354e-13
1.22900178e-09
4.043231339e-13
1.229511033e-09
3.839699443e-13
1.229132643e-09
3.614767659e-13
1.227916271e-09
3.371455847e-13
1.225909097e-09
3.107945405e-13
1.223156649e-09
2.827127346e-13
1.219701964e-09
2.527561468e-13
1.215586678e-09
2.211833864e-13
1.210850107e-09
1.878973536e-13
1.205530269e-09
1.531362239e-13
1.199663009e-09
1.16821802e-13
1.193283029e-09
7.918336134e-14
1.186423029e-09
4.01632728e-14
1.179114641e-09
1.171387595e-09
2.065255495e-15
4.557982746e-11
8.08230941e-15
1.33374097e-10
1.773571053e-14
2.162774726e-10
3.067207544e-14
2.94494311e-10
4.651017622e-14
3.682218847e-10
6.484631202e-14
4.376505135e-10
8.531402719e-14
5.029637423e-10
1.075090322e-13
5.643385255e-10
1.309896526e-13
6.219454595e-10
1.553835888e-13
6.759488398e-10
1.803958926e-13
7.265068402e-10
2.055809086e-13
7.737719173e-10
2.306523849e-13
8.178906871e-10
2.553663319e-13
8.590041363e-10
2.793281987e-13
8.972481284e-10
3.024467875e-13
9.327529976e-10
3.243769051e-13
9.656442916e-10
3.450093806e-13
9.960425248e-10
3.64122188e-13
1.024063481e-09
3.815933969e-13
1.049818548e-09
3.973135347e-13
1.073414343e-09
4.111718116e-13
1.094953647e-09
4.231056328e-13
1.114534646e-09
4.330357346e-13
1.132252045e-09
4.409165e-13
1.148196194e-09
4.467242969e-13
1.162454263e-09
4.50402969e-13
1.175109351e-09
4.520062439e-13
1.186241528e-09
4.514455402e-13
1.195927221e-09
4.488556909e-13
1.204239843e-09
4.440785133e-13
1.211249727e-09
4.373292011e-13
1.217024115e-09
4.284023068e-13
1.221627657e-09
4.17566312e-13
1.22512185e-09
4.046239792e-13
1.22756608e-09
3.898001376e-13
1.229016604e-09
3.729778989e-13
1.229527856e-09
3.543012108e-13
1.22915132e-09
3.33737637e-13
1.227936835e-09
3.113800976e-13
1.225931454e-09
2.872592663e-13
1.22318077e-09
2.614118594e-13
1.219727812e-09
2.339217803e-13
1.215614168e-09
2.047954938e-13
1.210879233e-09
1.741595095e-13
1.205560905e-09
1.420012691e-13
1.199695167e-09
1.084617919e-13
1.193316569e-09
7.353825754e-14
1.186457952e-09
3.738052634e-14
1.179150799e-09
1.171424975e-09
1.892439973e-15
4.557793502e-11
7.405737253e-15
1.333685837e-10
1.624315257e-14
2.162686352e-10
2.806817527e-14
2.944824859e-10
4.253145915e-14
3.682074214e-10
5.927111983e-14
4.376337739e-10
7.790408804e-14
5.029451093e-10
9.802154169e-14
5.643184081e-10
1.192549377e-13
6.219242261e-10
1.413079767e-13
6.759267867e-10
1.637739544e-13
7.264843742e-10
1.863179194e-13
7.737493733e-10
2.087535022e-13
8.178682515e-10
2.306803247e-13
8.589822094e-10
2.519342192e-13
8.972268745e-10
2.723003893e-13
9.327326314e-10
2.915316251e-13
9.656250604e-10
3.095741256e-13
9.960244823e-10
3.261209636e-13
1.024046934e-09
3.412699465e-13
1.049803399e-09
3.547109115e-13
1.073400902e-09
3.666034401e-13
1.094941754e-09
3.766477184e-13
1.114524601e-09
3.850466687e-13
1.132243646e-09
3.915200298e-13
1.148189721e-09
3.962960259e-13
1.162449487e-09
3.991382059e-13
1.175106509e-09
4.002575291e-13
1.186240408e-09
3.994879158e-13
1.195927991e-09
3.969827879e-13
1.204242348e-09
3.926394127e-13
1.21125407e-09
3.865481147e-13
1.217030206e-09
3.786940968e-13
1.221635511e-09
3.690908894e-13
1.225131453e-09
3.57802046e-13
1.227577369e-09
3.447719772e-13
1.229029634e-09
3.301277267e-13
1.2295425e-09
3.13745822e-13
1.229167702e-09
2.958296069e-13
1.227954751e-09
2.76204939e-13
1.225951079e-09
2.551215941e-13
1.223201853e-09
2.323775008e-13
1.219750556e-09
2.082364044e-13
1.21563831e-09
1.82505596e-13
1.210904964e-09
1.554507641e-13
1.20558796e-09
1.268939945e-13
1.199723724e-09
9.709431848e-14
1.193346369e-09
6.590322484e-14
1.186489143e-09
3.358690056e-14
1.179183115e-09
1.171458562e-09
1.656657495e-15
4.557627837e-11
6.483411863e-15
1.333637569e-10
1.42142091e-14
2.162609044e-10
2.454814626e-14
2.94472152e-10
3.716518608e-14
3.681948044e-10
5.170954088e-14
4.376192295e-10
6.782019627e-14
5.029289987e-10
8.515153296e-14
5.643010767e-10
1.034128588e-13
6.219059648e-10
1.22238209e-13
6.759079614e-10
1.412834453e-13
7.26465329e-10
1.60365423e-13
7.737302913e-10
1.791573408e-13
8.178494596e-10
1.974120028e-13
8.589639548e-10
2.15033564e-13
8.972092529e-10
2.316976562e-13
9.327159673e-10
2.474022478e-13
9.656093558e-10
2.618973842e-13
9.960099871e-10
2.751689264e-13
1.024033663e-09
2.870998812e-13
1.049791468e-09
2.976594292e-13
1.073390342e-09
3.067975474e-13
1.094932616e-09
3.14489987e-13
1.114516909e-09
3.207188312e-13
1.132237417e-09
3.254886284e-13
1.148184951e-09
3.287811829e-13
1.162446195e-09
3.306506462e-13
1.17510464e-09
3.310532411e-13
1.186240006e-09
3.300982227e-13
1.195928946e-09
3.276761547e-13
1.20424477e-09
3.239516879e-13
1.211257795e-09
3.187571133e-13
1.217035401e-09
3.123255992e-13
1.221641943e-09
3.044253884e-13
1.225139353e-09
2.953068783e-13
1.227586488e-09
2.847565262e-13
1.229040184e-09
2.72952932e-13
1.229554304e-09
2.597516095e-13
1.229180903e-09
2.45275988e-13
1.227969227e-09
2.29437358e-13
1.225966918e-09
2.122993242e-13
1.223218991e-09
1.938212598e-13
1.219769034e-09
1.740332623e-13
1.215658098e-09
1.529372947e-13
1.21092606e-09
1.305447403e-13
1.205610352e-09
1.068761724e-13
1.199747393e-09
8.195006887e-14
1.193371295e-09
5.580548619e-14
1.186515288e-09
2.8479162e-14
1.179210442e-09
1.171487042e-09
1.348617081e-15
4.557492975e-11
5.276279739e-15
1.333598293e-10
1.155506958e-14
2.162546256e-10
1.991921324e-14
2.944637879e-10
3.007264668e-14
3.681846509e-10
4.170681701e-14
4.376075953e-10
5.451967646e-14
5.029161858e-10
6.823753194e-14
5.642873589e-10
8.25391819e-14
6.218916632e-10
9.710954199e-14
6.75893391e-10
1.117579949e-13
7.264506805e-10
1.262391432e-13
7.737158102e-10
1.402670196e-13
8.178354317e-10
1.53792683e-13
8.589504291e-10
1.665678394e-13
8.971964777e-10
1.785008451e-13
9.327040343e-10
1.895197755e-13
9.655983368e-10
1.994603329e-13
9.960000466e-10
2.084214617e-13
1.024024702e-09
2.161989904e-13
1.049783691e-09
2.229918104e-13
1.073383549e-09
2.285696043e-13
1.094927038e-09
2.331916977e-13
1.114512287e-09
2.366268241e-13
1.132233982e-09
2.391554847e-13
1.148182423e-09
2.405654554e-13
1.162444785e-09
2.41126636e-13
1.175104079e-09
2.406658156e-13
1.186240467e-09
2.393983645e-13
1.195930213e-09
2.371840695e-13
1.204246984e-09
2.341705025e-13
1.211260808e-09
2.302775376e-13
1.217039294e-09
2.255721659e-13
1.221646648e-09
2.200250636e-13
1.2251449e-09
2.136273046e-13
1.227592886e-09
2.063952134e-13
1.229047417e-09
1.982376964e-13
1.229562461e-09
1.892308039e-13
1.22918991e-09
1.792256191e-13
1.227979232e-09
1.683356184e-13
1.225977808e-09
1.56358693e-13
1.223230968e-09
1.434478757e-13
1.219781945e-09
1.293730464e-13
1.215672172e-09
1.143223525e-13
1.21094111e-09
9.805196413e-14
1.205626623e-09
8.075661112e-14
1.199764688e-09
6.222082089e-14
1.193389831e-09
4.264749498e-14
1.186534861e-09
2.184138309e-14
1.179231248e-09
1.171508883e-09
9.508710035e-16
4.557397888e-11
3.717233055e-15
1.333570629e-10
8.113426371e-15
2.162502294e-10
1.392157734e-14
2.944579797e-10
2.089749355e-14
3.68177675e-10
2.880515135e-14
4.375996877e-10
3.740454129e-14
5.029075864e-10
4.642807243e-14
5.642783354e-10
5.561047627e-14
6.218824808e-10
6.477700457e-14
6.758842245e-10
7.375516434e-14
7.264417024e-10
8.228411985e-14
7.737072812e-10
9.030067467e-14
8.178274151e-10
9.768956232e-14
8.589430402e-10
1.042851374e-13
8.971898822e-10
1.101747931e-13
9.326981447e-10
1.151523607e-13
9.655933593e-10
1.193530954e-13
9.959958459e-10
1.227023218e-13
1.024021352e-09
1.252924586e-13
1.049781101e-09
1.27136597e-13
1.073381705e-09
1.283053589e-13
1.09492587e-09
1.288583831e-13
1.114511734e-09
1.288633863e-13
1.132233977e-09
1.283869543e-13
1.148182899e-09
1.275128179e-13
1.162445659e-09
1.262825187e-13
1.175105309e-09
1.248019386e-13
1.186241947e-09
1.230442832e-13
1.195931971e-09
1.211365084e-13
1.204248892e-09
1.189827354e-13
1.211262962e-09
1.167480342e-13
1.217041528e-09
1.142411683e-13
1.221649155e-09
1.116709839e-13
1.225147471e-09
1.087772309e-13
1.227595779e-09
1.057520772e-13
1.229050442e-09
1.023160112e-13
1.229565897e-09
9.861853972e-14
1.229193608e-09
9.441879186e-14
1.227983431e-09
8.979320859e-14
1.225982433e-09
8.453474738e-14
1.223236226e-09
7.867797562e-14
1.219787801e-09
7.205006589e-14
1.2156788e-09
6.466411119e-14
1.210948496e-09
5.636487513e-14
1.205634922e-09
4.716649786e-14
1.199773887e-09
3.694038661e-14
1.193400057e-09
2.572190408e-14
1.18654608e-09
1.338185767e-14
1.179243588e-09
1.171522265e-09
4.440591696e-16
4.557353482e-11
1.731930649e-15
1.33355775e-10
3.736098357e-15
2.162482252e-10
6.306161932e-15
2.944554097e-10
9.278711491e-15
3.681747025e-10
1.24788668e-14
4.375964875e-10
1.570493032e-14
5.029043604e-10
1.876287747e-14
5.642752774e-10
2.151861155e-14
6.21879725e-10
2.386792503e-14
6.758818752e-10
2.561092924e-14
7.264399593e-10
2.668810209e-14
7.73706204e-10
2.711034414e-14
8.178269929e-10
2.67210414e-14
8.589434295e-10
2.562234999e-14
8.971909809e-10
2.378913094e-14
9.326999779e-10
2.124953601e-14
9.655958989e-10
1.816486609e-14
9.959989305e-10
1.449719937e-14
1.02402502e-09
1.052908586e-14
1.049785069e-09
6.168797791e-15
1.073386065e-09
1.767915108e-15
1.09493027e-09
-2.786311167e-15
1.114516288e-09
-7.124643555e-15
1.132238315e-09
-1.137008725e-14
1.148187144e-09
-1.515706265e-14
1.162449446e-09
-1.862454351e-14
1.175108776e-09
-2.145324407e-14
1.186244776e-09
-2.379438343e-14
1.195934312e-09
-2.540676515e-14
1.204250505e-09
-2.642039378e-14
1.211263976e-09
-2.668826664e-14
1.217041796e-09
-2.633107177e-14
1.221648798e-09
-2.529288317e-14
1.225146432e-09
-2.368074054e-14
1.227594167e-09
-2.154342257e-14
1.229048304e-09
-1.895734109e-14
1.229563311e-09
-1.605026585e-14
1.229190701e-09
-1.288089893e-14
1.227980262e-09
-9.65053726e-15
1.225979203e-09
-6.395487869e-15
1.223232971e-09
-3.359386245e-15
1.219784765e-09
-5.538132569e-16
1.215675995e-09
1.75282783e-15
1.21094619e-09
3.560086369e-15
1.205633115e-09
4.615924326e-15
1.199772831e-09
4.935058236e-15
1.193399737e-09
4.292710582e-15
1.186546722e-09
2.703867332e-15
1.179245177e-09
1.171524969e-09
-1.904172369e-16
4.557372524e-11
-7.52620611e-16
1.333563372e-10
-1.733777591e-15
2.162492064e-10
-3.201836906e-15
2.944568777e-10
-5.236354697e-15
3.68176737e-10
-7.954598119e-15
4.375992058e-10
-1.145743873e-14
5.029078632e-10
-1.58096881e-14
5.642796297e-10
-2.104928618e-14
6.218849646e-10
-2.727457674e-14
6.758881005e-10
-3.451745116e-14
7.264472022e-10
-4.267800424e-14
7.737143646e-10
-5.179725288e-14
8.178361122e-10
-6.179253175e-14
8.589534248e-10
-7.249263655e-14
8.97201681e-10
-8.392099102e-14
9.327114063e-10
-9.575463509e-14
9.656077325e-10
-1.079526918e-13
9.960111286e-10
-1.202359851e-13
1.024037303e-09
-1.324589511e-13
1.049797292e-09
-1.44393548e-13
1.073398e-09
-1.558350779e-13
1.094941712e-09
-1.665946069e-13
1.114527048e-09
-1.764548332e-13
1.132248176e-09
-1.852519257e-13
1.148195942e-09
-1.927961154e-13
1.16245699e-09
-1.989424481e-13
1.175114923e-09
-2.035799273e-13
1.186249413e-09
-2.065854825e-13
1.195937317e-09
-2.079391346e-13
1.204251858e-09
-2.07521326e-13
1.211263558e-09
-2.054281422e-13
1.217039703e-09
-2.015420488e-13
1.221644912e-09
-1.960704525e-13
1.225140961e-09
-1.889109359e-13
1.227587008e-09
-1.803736544e-13
1.229039767e-09
-1.703546813e-13
1.229553292e-09
-1.592264693e-13
1.229179572e-09
-1.469394523e-13
1.227967975e-09
-1.338968485e-13
1.22596616e-09
-1.200887981e-13
1.223219163e-09
-1.059151794e-13
1.219770592e-09
-9.139673347e-14
1.215661476e-09
-7.692763723e-14
1.21093172e-09