/*--------------------------------*- C++ -*----------------------------------*\
  =========                 |
  \\      /  F ield         | OpenFOAM: The Open Source CFD Toolbox
   \\    /   O peration     | Website:  https://openfoam.org
    \\  /    A nd           | Version:  7
     \\/     M anipulation  |
\*---------------------------------------------------------------------------*/
FoamFile
{
    version     2.0;
    format      ascii;
    class       volScalarField;
    location    "0.0015";
    object      rho;
}
// * * * * * * * * * * * * * * * * * * * * * * * * * * * * * * * * * * * * * //

dimensions      [1 -3 0 0 0 0 0];

internalField   nonuniform List<scalar> 
1167
(
958.4631455
958.4352244
958.3753902
958.2870331
958.1722722
958.03269
957.8698988
957.6854347
957.4809559
957.2578377
957.0173023
956.7608863
956.4897515
956.2049366
955.9079294
955.5994079
955.2807919
954.9527299
954.6164103
954.2724869
953.9220114
953.5655271
953.2040415
952.8379219
952.4681861
952.0950575
951.7195326
951.3417772
950.9625283
950.5821345
950.2010543
949.8198134
949.4385777
949.0580494
948.6781742
948.2995806
958.2100486
958.1823116
958.1228717
958.0350872
957.9208936
957.782
957.6200104
957.4367085
957.2333579
957.0113324
956.7722017
956.517189
956.247357
955.9642628
955.6686742
955.3619033
955.0448815
954.7185754
954.3839782
954.0418622
953.6931639
953.3385564
952.9788428
952.6146722
952.2466626
951.8755574
951.5017241
951.1259669
950.7484348
950.3700028
949.9907502
949.6113483
949.232043
948.8532134
948.4752655
948.0983082
947.7229426
947.3490878
946.9773284
946.6075952
946.2403078
945.8755259
945.5134826
945.1543707
944.7982412
944.4453677
944.0956818
943.7495318
943.4067517
943.0677204
957.9623164
957.9347144
957.8755634
957.7882053
957.6745656
957.5364475
957.3754883
957.1930972
956.9907273
956.7700036
956.5321659
956.2783604
956.0101253
955.7283912
955.4343586
955.1292145
954.8137304
954.4892172
954.1561893
953.8159597
953.4688838
953.1161888
952.7581679
952.3958741
952.0296594
951.6603844
951.2884291
950.9143995
950.538817
950.1620369
949.7847267
949.4069799
949.0295901
948.6525003
948.2763224
947.9011881
947.5274711
947.1554561
946.7852656
946.4173438
946.0515915
945.6885804
945.3281056
944.9706744
944.6161261
944.264836
943.9167368
943.572096
943.2308884
942.8933009
957.7195457
957.6920754
957.6332068
957.5463528
957.4334278
957.2960757
957.1358819
956.954357
956.7532067
956.533639
956.2969104
956.0445575
955.7776396
955.4972793
955.2048889
954.9011405
954.5874401
954.2644027
953.9332205
953.5945212
953.249331
952.8982037
952.5420766
952.1813831
951.8170993
951.4494367
951.0793932
950.7070649
950.3333047
949.9583284
949.5827347
949.2068795
948.8310886
948.4558561
948.0812551
947.7079572
947.3358733
946.9655919
946.5970942
946.2307858
945.8667689
945.5052674
945.1465099
944.7905393
944.437662
944.0878019
943.7413382
943.3980953
943.058483
942.7222534
957.481804
957.4545045
957.3960018
957.3096004
957.1972045
957.0604955
956.9010738
956.7206856
956.5205257
956.3019666
956.0665622
955.8154629
955.5497616
955.2710284
954.9799561
954.6778469
954.3656187
954.0442203
953.7146452
953.3776126
953.0340939
952.684677
952.330228
951.9713351
951.6087029
951.2429055
950.8744409
950.5039813
950.1318032
949.7586927
949.3847194
949.0106753
948.6365839
948.2630313
947.8902105
947.5184816
947.1481748
946.779409
946.412663
946.0478395
945.6855371
945.3255597
944.9684256
944.6139939
944.2626464
943.9143333
943.5693271
943.2276199
942.8894006
942.5546793
957.2489614
957.2217879
957.1635551
957.0775523
956.9656745
956.8297329
956.6712733
956.4917034
956.2924491
956.0751031
955.8408664
955.5908948
955.3267203
955.049237
954.7596035
954.4590142
954.1482
953.8284995
953.5003604
953.1651112
952.8230723
952.4754541
952.1225303
951.7654704
951.4044335
951.0404022
950.673614
950.3048501
949.9344416
949.5629388
949.1907843
948.818277
948.4459746
948.0739406
947.7028915
947.3327447
946.9641062
946.5969814
946.2317905
945.8686511
945.5078056
945.1494918
944.7937733
944.4409619
944.0910017
943.7442758
943.400627
943.0604691
942.7235697
942.3903626
957.0207304
956.9936802
956.9357116
956.8502042
956.7390114
956.6037602
956.446008
956.2672377
956.0691045
955.8528162
955.6196156
955.3710149
955.1080732
954.8318405
954.5437585
954.2444749
953.9353278
953.6170013
953.2905687
952.9567589
952.6164419
952.2703126
951.9191797
951.5636113
951.204358
950.84183
950.4768309
950.1095809
949.7409631
949.3710354
949.0006017
948.6297427
948.2590442
947.8887358
947.5191905
947.1507595
946.7835846
946.4181534
946.0543986
945.6929186
945.3335403
944.9768081
944.6225739
944.2712535
943.9227881
943.5774831
943.2353212
942.8965213
942.5610848
942.229198
956.7971947
956.7703084
956.7126902
956.627593
956.5168895
956.3822321
956.225176
956.0474506
955.8502392
955.6348931
955.4029243
955.1555173
954.8937066
954.6189837
954.3321348
954.034339
953.7266096
953.4097489
953.0848764
952.7525401
952.4138496
952.0692446
951.7197751
951.3657807
951.008156
950.647271
950.2838529
949.9183284
949.5512222
949.1830422
948.8140845
948.4449478
948.075711
947.7071112
947.3390858
946.9722718
946.6066741
946.2427548
945.8806203
945.5205591
945.1627922
944.8074318
944.4547685
944.1047938
943.7578684
943.4138813
943.0732238
942.7357064
942.4017411
942.0711128
956.5782152
956.5514454
956.4940765
956.4093471
956.2991214
956.1651382
956.0089842
955.8320223
955.6356568
955.4214217
955.1905839
954.9442253
954.6837861
954.4102764
954.1247081
953.8283974
953.5219488
953.2067087
952.8831736
952.5524862
952.2151822
951.872279
951.5242245
951.1719307
950.8157378
950.456564
950.0945926
949.7307854
949.3651994
948.9986625
948.631292
948.2636964
947.8961194
947.5289716
947.1626024
946.7972013
946.4332407
946.0707095
945.7101808
945.3515181
944.9953057
944.6413629
944.2901661
943.9416218
943.5960951
943.2535336
942.9142134
942.5781006
942.2454347
941.916172
956.3635156
956.3368594
956.2797341
956.1954131
956.0858168
955.9525047
955.7970107
955.6207959
955.425441
955.2122488
954.9823743
954.7372248
954.4779989
954.205623
953.9215419
953.626447
953.3215068
953.007594
952.685543
952.3562958
952.0205097
951.679109
951.3326008
950.9818075
950.6272163
950.2695192
949.9092207
949.5468404
949.1829324
948.8178121
948.4520987
948.085909
947.7199788
947.3542784
946.9894882
946.6255894
946.2631114
945.9021256
945.5429913
945.1858893
944.8310059
944.4785861
944.1286943
943.7816444
943.4373971
943.0962966
942.7582225
942.4235393
942.0920971
941.7642246
956.1531074
956.1266016
956.0697985
955.9859042
955.876764
955.7440063
955.5891583
955.4138756
955.2194483
955.0071321
954.7783209
954.5343635
954.276196
954.0051839
953.7223002
953.4284886
953.1249751
952.8123142
952.4918202
952.163879
951.8297071
951.4896461
951.1447568
950.7953249
950.4423685
950.0860579
949.7273988
949.3664749
949.0041439
948.6405404
948.2763172
947.9117115
947.5471942
947.1830919
946.8196649
946.4573481
946.0962117
945.7367794
945.3789752
945.0234028
944.6698595
944.3188953
943.9703583
943.6246986
943.2818045
942.942035
942.6052956
942.271905
941.9417646
941.6151508
955.946976
955.9205788
955.8640083
955.7804574
955.6717635
955.5395528
955.3855775
955.2110784
955.0174373
954.8060565
954.5783935
954.3354169
954.0784289
953.8086524
953.5268922
953.2345365
952.9322159
952.6210471
952.3018116
951.9753774
951.6425541
951.304006
950.960497
950.6126188
950.2610437
949.9063397
949.5490388
949.1897247
948.8287519
948.4667416
948.1038697
947.7408503
947.3776982
947.0151491
946.6531391
946.2922891
945.9326122
945.5745628
945.2182588
944.8639855
944.5119186
944.1622201
943.8151332
943.4707156
943.1292405
942.7906818
942.4553317
942.1231311
941.7943425
941.4688855
955.7448287
955.7185378
955.6621948
955.5789798
955.470835
955.3393552
955.1859936
955.0121886
954.8193746
954.6090737
954.3823115
954.1403449
953.8846114
953.6158903
953.3354632
953.0442947
952.7432344
952.4334389
952.1154478
951.7905231
951.4589648
951.1219553
950.7797381
950.4334193
950.0831696
949.7300298
949.3741135
949.0163205
948.6567856
948.2962257
947.9348526
947.5732184
947.2116077
946.8503735
946.489892
946.1303381
945.7721639
945.4154016
945.0605792
944.7075681
944.356949
944.0085189
943.662827
943.3196794
942.9795424
942.6422369
942.3081858
941.9772117
941.6496875
941.3254088
955.546575
955.5204227
955.4643901
955.3816328
955.2739695
955.1430046
954.9902427
954.8171779
954.6253498
954.4158675
954.1899866
953.949247
953.6944983
953.4269055
953.1477384
952.8576771
952.5580224
952.2493996
951.932883
951.609176
951.2790927
950.9433492
950.6026318
950.2576064
949.9088917
949.5570483
949.2026746
948.8461823
948.488178
948.1289156
947.7690695
947.4087374
947.048637
946.6887248
946.3297065
945.9715163
945.6147259
945.259369
944.9058534
944.5542635
944.2048818
943.8578589
943.5133731
943.1716038
942.8326434
942.4966882
942.1637943
941.834135
941.5077362
941.1847422
955.3524243
955.3263792
955.2705626
955.1881239
955.0808747
954.9504129
954.7983274
954.6261268
954.4350328
954.2263512
954.0015919
953.7617893
953.5080035
953.2416989
952.9635767
952.6747886
952.3763198
952.0689321
951.7537685
951.4312751
951.1026276
950.7681071
950.4288741
950.0851065
949.7378886
949.3873506
949.034451
948.6793099
948.3227256
947.964868
947.6063896
947.2475155
946.8887111
946.530275
946.1725085
945.8157716
945.4602264
945.1063047
944.7540122
944.4038263
944.055649
943.7100067
943.3667039
943.0262865
942.6884876
942.3538507
942.0220984
941.6937225
941.3684281
941.0466947
955.1619895
955.1360427
955.080437
954.9983093
954.8914645
954.7616404
954.610268
954.4387148
954.2483385
954.0406405
953.8167987
953.5778875
953.3252923
953.0599948
952.7829307
952.4954206
952.1980437
951.8920434
951.5780219
951.2569388
950.9294705
950.5963901
950.2583684
949.9160647
949.5700816
949.2210197
948.8693637
948.5156912
948.1603513
947.8039624
947.4467362
947.0893181
946.7317557
946.3747666
946.0182586
945.662918
945.3086739
944.9560791
944.6051058
944.2561789
943.9093355
943.5648966
943.2229268
942.8836599
942.5471738
942.2136628
941.8831899
941.5559098
941.2318575
940.9112071
954.9751798
954.9493291
954.8939291
954.8121744
954.7058863
954.5765931
954.4257793
954.2548586
954.0653472
953.8585228
953.6354985
953.3975984
953.1460502
952.8817107
952.6058969
952.3194211
952.0232684
951.7184661
951.4056199
951.0858563
950.7595536
950.4278709
950.0910349
949.7501649
949.4054013
949.0577738
948.7073747
948.3551002
948.001063
947.6460335
947.2901612
946.9340425
946.5778809
946.2221245
945.8670217
945.5128854
945.1600318
944.8086223
944.459011
944.1112529
943.7657502
943.422461
943.0818055
942.7436616
942.4084646
942.0760589
941.7468414
941.4206368
941.0978119
940.7782163
954.7920134
954.7662956
954.7111802
954.6297767
954.5238735
954.3950482
954.2447798
954.0746263
953.8859189
953.6798357
953.4576591
953.2208249
952.9701687
952.7069094
952.4321737
952.1467084
951.8518558
951.5481193
951.236602
950.9179463
950.5930077
950.2624698
949.927025
949.5873292
949.2439751
948.8975338
948.5485419
948.1974586
947.8448323
947.4910053
947.1365358
946.7816136
946.4268492
946.0722782
945.718555
945.3656068
945.0141116
944.6639105
944.3155913
943.9690577
943.6247949
943.2827323
942.9432669
942.6063371
942.2722976
941.9410796
941.6129892
941.2879304
940.9662229
940.6477226
954.6124844
954.5868577
954.5319378
954.4508229
954.345295
954.216926
954.0673503
953.8979038
953.7098592
953.504499
953.2833635
953.0473531
952.797583
952.5354651
952.2616809
951.9774281
951.6836174
951.3810153
951.070702
950.7531506
950.4295251
950.1001069
949.7660253
949.4274769
949.0855022
948.7402216
948.3926073
948.0427171
947.6914493
947.3388645
946.9857063
946.6320674
946.2785613
945.9253077
945.5727889
945.2211877
944.8708415
944.5219619
944.1747775
943.8295467
943.4864019
943.145618
942.8072459
942.471571
942.1386083
941.8086135
941.4815715
941.1577087
940.8370297
940.5197032
954.4363365
954.4107986
954.3560691
954.2752353
954.1700784
954.0423473
953.8933523
953.7244882
953.5370894
953.3326718
953.1123109
952.8771034
952.6284223
952.3671939
952.0943874
951.8112957
951.5184731
951.2171172
950.9078391
950.5915743
950.2690257
949.9409136
949.6079556
949.2707291
948.9299029
948.5859625
948.2394905
947.890953
947.5408381
947.1896029
946.8375961
946.4853054
946.1329431
945.7810234
945.4296483
945.0793694
944.7301512
944.3825697
944.0365002
943.6925494
943.3505167
943.010975
942.6737029
942.3392363
942.0073556
941.6785382
941.3525373
941.0298389
940.71017
940.3939958
954.2634942
954.2380427
954.1834983
954.1030449
953.9983962
953.8710943
953.7225996
953.554302
953.3677168
953.1640507
952.9444226
952.7101365
952.4623779
952.2020162
951.9303603
951.6482012
951.3564699
951.0562006
950.7479615
950.4329253
950.1114286
949.7846074
949.4527339
949.1168199
948.7770964
948.4344722
948.0891141
947.7419032
947.3929185
947.0430062
946.6921572
946.341159
945.9899878
945.6393117
945.2891644
944.9400775
944.5921035
944.2456625
943.9008518
943.5579971
943.2172098
942.8787335
942.5426846
942.2092686
941.8785813
941.5507875
941.2259539
940.9042599
940.5857202
940.2705374
954.0940042
954.0686749
954.014392
953.9342173
953.8299109
953.7030254
953.5550162
953.3874243
953.2015419
952.9985364
952.7796613
952.5463265
952.2993705
952.0399832
951.769315
951.4880635
951.1974932
950.8981837
950.5911513
950.2771214
949.9568399
949.6310926
949.3004362
948.9656461
948.6271492
948.2856626
947.9415605
947.5954888
947.2477929
946.8989938
946.5494441
946.1995483
945.8496658
945.5000955
945.1512298
944.8032371
944.4565239
944.1111669
943.7676017
943.4258171
943.0862543
942.7488263
942.4139807
942.0815984
941.7520846
941.4252976
941.1016118
940.7809053
940.4634912
940.1492653
953.9278027
953.9025539
953.8484435
953.7685234
953.6645484
953.538066
953.3906777
953.2237128
953.0384167
952.8360513
952.6180961
952.385497
952.1393197
951.8809892
951.61117
951.3309645
951.0413588
950.7430189
950.4371277
950.1240783
949.8050126
949.4802836
949.1508703
948.8171224
948.4798782
948.1394503
947.796616
947.4516241
947.1051981
946.7574826
946.4092072
946.0603935
945.7117774
945.3633026
945.0156873
944.6688093
944.3232973
943.9790711
943.6366676
943.2960176
942.9575764
942.6212728
942.2875219
941.9562415
941.6277956
941.3020721
940.9794447
940.6597548
940.3434002
940.0301177
949.9738734
949.6558293
949.3322058
949.0038912
948.671249
948.3351392
947.9958368
947.6541563
947.3103216
946.9650389
946.6185141
946.2713585
945.9237637
945.57624
945.229007
944.882453
944.5368002
944.1923428
943.8493301
943.5079707
943.1685164
942.8311
942.4959728
942.1632338
941.8331022
941.5056428
941.181043
940.8593833
940.5407955
940.2253783
939.9131572
)
;

boundaryField
{
    front_top
    {
        type            wedge;
    }
    front_middle
    {
        type            wedge;
    }
    front_bottom
    {
        type            wedge;
    }
    back_top
    {
        type            wedge;
    }
    back_middle
    {
        type            wedge;
    }
    back_bottom
    {
        type            wedge;
    }
    axis_top
    {
        type            symmetryPlane;
    }
    axis_middle
    {
        type            symmetryPlane;
    }
    axis_bottom
    {
        type            symmetryPlane;
    }
    wall_top
    {
        type            calculated;
        value           nonuniform List<scalar> 
23
(
942.8987026
942.724975
942.5547759
942.3879041
942.2242411
942.0637175
941.9063977
941.7521218
941.6007746
941.4522896
941.3066628
941.1638833
941.0237739
940.8862731
940.7513219
940.618947
940.4890682
940.3615523
940.2363393
940.1133663
939.992613
939.8740692
939.7575701
)
;
    }
    wall_middle
    {
        type            calculated;
        value           nonuniform 0();
    }
    wall_bottom
    {
        type            calculated;
        value           nonuniform 0();
    }
    inlet
    {
        type            calculated;
        value           nonuniform 0();
    }
    outlet
    {
        type            calculated;
        value           nonuniform 0();
    }
    procBoundary7to6
    {
        type            processor;
        value           nonuniform List<scalar> 
51
(
953.7646806
953.7395094
953.6855653
953.6058909
953.5022355
953.3763146
953.229449
953.0629943
952.8782644
952.6767051
952.4594554
952.2275682
951.9823631
951.7248381
951.4558417
951.1767078
950.8879816
950.5907644
950.2858042
950.2858042
949.8262952
949.5091979
949.1867433
948.8594058
948.5279488
948.1928384
947.8547419
947.5140875
947.171468
946.8272218
946.4819224
946.1358073
945.7894349
945.4429614
945.0969493
944.7514394
944.4069928
944.0635743
943.7217573
943.381427
943.0431509
942.7067453
942.3727782
942.0410374
941.7120379
941.3855513
941.0620591
940.7413529
940.42385
940.1093554
939.7981785
)
;
    }
    procBoundary7to8
    {
        type            processor;
        value           nonuniform List<scalar> 
51
(
958.7216008
958.6935372
958.633398
958.5445824
958.4290504
958.2885392
958.1249273
957.9395355
957.7338419
957.5094067
957.2676693
957.0097267
956.7371032
956.4508578
956.1520715
955.8420476
955.5215082
955.1918673
954.8535711
954.5080028
954.1555033
953.7973337
953.4337983
953.0659685
952.6941877
952.3192786
951.9417318
951.5620951
951.1809566
950.7985731
950.4157271
950.0324651
949.6495155
949.2669886
948.885345
948.504876
947.9223124
947.9223124
947.5467851
947.1732119
946.801747
946.4327722
946.0662164
945.7025958
945.3417116
944.9840752
944.6294787
944.2783189
943.9304837
943.5862642
943.2455902
)
;
    }
}


// ************************************************************************* //
