/*--------------------------------*- C++ -*----------------------------------*\
  =========                 |
  \\      /  F ield         | OpenFOAM: The Open Source CFD Toolbox
   \\    /   O peration     | Website:  https://openfoam.org
    \\  /    A nd           | Version:  7
     \\/     M anipulation  |
\*---------------------------------------------------------------------------*/
FoamFile
{
    version     2.0;
    format      ascii;
    class       volScalarField;
    location    "0.0006";
    object      p;
}
// * * * * * * * * * * * * * * * * * * * * * * * * * * * * * * * * * * * * * //

dimensions      [1 -1 -2 0 0 0 0];

internalField   nonuniform List<scalar> 
1167
(
1467281.677
1467801.471
1467596.907
1467444.969
1467289.077
1467103.577
1466895.722
1466670.693
1466429.334
1466175.976
1465919.845
1465660.033
1465397.066
1465140.764
1464887.418
1464640.365
1464402.83
1464171.241
1463952.436
1467617.486
1468282.367
1468037.706
1467870.571
1467707.021
1467514.122
1467295.406
1467055.366
1466798.1
1466532.61
1466261.526
1465983.386
1465707.11
1465434.603
1465163.543
1464902.589
1464647.616
1464402.393
1464167.301
1463941.577
1463728.018
1463523.373
1463331.526
1463148.052
1462976.805
1462813.038
1462660.384
1462514.595
1462378.536
1462248.444
1462126.692
1462010.112
1461900.319
1461795.071
1461695.438
1461599.73
1461508.488
1461420.654
1461336.504
1461255.398
1461177.404
1461102.113
1461029.656
1460959.775
1460892.625
1460827.98
1460766.382
1460706.903
1460647.62
1460588.762
1467877.355
1468702.413
1468416.52
1468237.409
1468070.072
1467869.059
1467638.767
1467385.877
1467119.093
1466843.034
1466557.314
1466267.598
1465980.637
1465693.755
1465412.469
1465138.954
1464871.004
1464615.224
1464366.987
1464131.383
1463905.332
1463691.206
1463487.502
1463294.793
1463112.118
1462939.306
1462775.687
1462620.953
1462474.097
1462335.061
1462202.55
1462076.718
1461956.022
1461841.144
1461730.245
1461624.238
1461521.154
1461422.255
1461325.572
1461232.546
1461141.224
1461053.147
1460966.693
1460883.289
1460801.538
1460722.823
1460646.361
1460572.551
1460497.314
1460422.574
1468047.234
1469046.422
1468717.612
1468527.095
1468355.4
1468146.615
1467907.118
1467647.919
1467375.161
1467089.572
1466794.43
1466499.197
1466203.258
1465907.889
1465620.513
1465337.892
1465064.479
1464800.851
1464546.293
1464304.33
1464071.076
1463851.347
1463640.386
1463442.341
1463252.453
1463074.313
1462903.598
1462743.256
1462589.129
1462443.975
1462303.839
1462171.039
1462042.142
1461919.296
1461799.332
1461684.108
1461570.867
1461461.368
1461353.362
1461248.367
1461144.479
1461043.192
1460943.006
1460845.359
1460748.821
1460655.065
1460563.168
1460473.853
1460381.638
1460289.561
1468108.387
1469293.683
1468918.048
1468716.318
1468541.18
1468327.593
1468085.223
1467824.241
1467547.154
1467255.731
1466959.362
1466661.421
1466360.858
1466065.062
1465775.028
1465490.054
1465216.265
1464949.966
1464695.721
1464451.541
1464218.762
1463997.311
1463786.339
1463586.54
1463395.987
1463215.752
1463043.648
1462880.473
1462724.096
1462575.111
1462431.579
1462293.711
1462160.146
1462030.771
1461904.566
1461781.153
1461659.99
1461540.631
1461422.882
1461306.276
1461190.853
1461076.38
1460963.046
1460850.765
1460739.709
1460630.262
1460522.879
1460417.161
1460307.454
1460196.583
1468037.999
1469421.476
1468995.612
1468783.212
1468608.695
1468396.072
1468155.319
1467894.272
1467615.539
1467326.663
1467033.882
1466737.085
1466440.448
1466149.582
1465862.434
1465583.955
1465314.73
1465054.105
1464805.928
1464566.293
1464340.056
1464122.961
1463918.14
1463722.116
1463536.845
1463359.583
1463191.559
1463030.117
1462876.362
1462727.623
1462584.873
1462445.512
1462310.737
1462177.871
1462048.176
1461919.071
1461792.071
1461664.792
1461538.778
1461411.967
1461285.959
1461159.173
1461033.172
1460906.621
1460781.111
1460655.816
1460532.647
1460409.891
1460282.003
1460150.929
1467814.226
1469407.394
1468929.866
1468710.661
1468541.754
1468333.823
1468096.636
1467838.475
1467565.677
1467286.178
1467001.134
1466712.173
1466427.383
1466146.716
1465871.005
1465605.645
1465347.782
1465101.376
1464865.303
1464639.868
1464426.112
1464221.884
1464029.166
1463844.509
1463670.335
1463502.832
1463344.242
1463190.702
1463044.311
1462901.328
1462763.468
1462627.493
1462494.879
1462362.774
1462232.307
1462101.17
1461970.398
1461838.159
1461705.454
1461570.804
1461435.353
1461298.013
1461160.032
1461020.428
1460880.658
1460740.048
1460600.804
1460460.935
1460314.162
1460162.11
1467420.819
1469235.242
1468705.088
1468482.559
1468321.835
1468120.736
1467890.212
1467641.6
1467382.692
1467116.454
1466844.425
1466572.981
1466305.966
1466042.388
1465787.553
1465541.853
1465304.699
1465079.854
1464863.869
1464660.594
1464466.749
1464283.879
1464110.038
1463945.256
1463788.394
1463638.719
1463495.266
1463357.04
1463223.168
1463092.54
1462964.247
1462837.464
1462711.198
1462584.794
1462457.234
1462328.219
1462196.843
1462063.118
1461926.285
1461786.61
1461643.7
1461497.996
1461349.385
1461198.334
1461045.09
1460890.316
1460735.298
1460578.838
1460412.877
1460239.758
1466843.766
1468889.696
1468304.668
1468080.292
1467930.414
1467739.148
1467521.109
1467289.653
1467049.032
1466801.281
1466550.784
1466304.199
1466061.394
1465824.538
1465598.072
1465379.834
1465173.154
1464977.42
1464792.004
1464618.583
1464453.836
1464300.303
1464153.962
1464017.005
1463885.576
1463761.39
1463640.673
1463524.94
1463410.618
1463298.926
1463186.624
1463074.914
1462960.76
1462845.224
1462725.664
1462603.214
1462475.635
1462344.16
1462206.905
1462065.27
1461917.887
1461766.232
1461609.261
1461448.549
1461283.355
1461115.565
1460945.524
1460773.039
1460587.826
1460393.653
1466066.646
1468353.348
1467711.759
1467488.107
1467351.884
1467175.725
1466977.121
1466767.758
1466550.522
1466328.264
1466108.22
1465892.736
1465681.83
1465481.033
1465290.379
1465109.408
1464941.501
1464783.593
1464638.151
1464502.888
1464377.726
1464261.772
1464153.274
1464052.208
1463956.036
1463865.027
1463776.275
1463690.285
1463604.066
1463518.057
1463429.583
1463339.054
1463244.051
1463144.899
1463039.615
1462928.615
1462810.338
1462685.347
1462552.433
1462412.452
1462264.584
1462109.923
1461947.833
1461779.718
1461604.981
1461425.594
1461242.034
1461054.333
1460850.507
1460635.371
1465077.678
1467613.451
1466913.291
1466692.775
1466575.466
1466420.46
1466246.1
1466063.527
1465875.349
1465687.489
1465504.415
1465326.826
1465157.837
1465000.818
1464854.173
1464720.652
1464599.819
1464490.234
1464393.554
1464306.125
1464229.864
1464160.851
1464099.83
1464043.775
1463992.492
1463943.471
1463896.118
1463848.28
1463799.117
1463746.742
1463690.45
1463628.504
1463560.301
1463484.297
1463400.187
1463306.707
1463203.859
1463090.677
1462967.45
1462833.689
1462689.901
1462535.981
1462372.558
1462199.954
1462018.774
1461830.021
1461635.179
1461433.716
1461212.661
1460977.032
1463866.122
1466658.887
1465899.832
1465686.984
1465593.678
1465463.931
1465318.121
1465167.485
1465016.41
1464870.318
1464730.911
1464599.402
1464481.092
1464375.623
1464282.773
1464205.317
1464140.45
1464089.4
1464050.421
1464021.993
1464003.742
1463992.354
1463988.252
1463987.507
1463990.619
1463993.649
1463997.059
1463997.08
1463994.037
1463984.551
1463969.011
1463944.331
1463910.908
1463866.082
1463810.442
1463741.779
1463660.911
1463566.051
1463458.298
1463336.419
1463201.703
1463053.308
1462892.742
1462719.508
1462535.221
1462339.953
1462136.311
1461922.933
1461686.366
1461431.241
1462427.768
1465485.131
1464666.922
1464465.894
1464399.797
1464299.245
1464186.847
1464075.124
1463968.972
1463870.705
1463781.81
1463706.12
1463645.973
1463600.22
1463571.14
1463558.212
1463559.396
1463576.001
1463604.33
1463644.845
1463694.175
1463751.202
1463813.6
1463879.273
1463946.431
1464012.526
1464076.233
1464134.817
1464187.218
1464230.908
1464265.063
1464287.37
1464297.197
1464292.63
1464273.344
1464237.853
1464186.172
1464117.207
1464031.422
1463928.137
1463808.188
1463671.144
1463518.281
1463349.275
1463165.683
1462967.619
1462758.072
1462535.401
1462285.326
1462012.348
1460761.668
1464090.209
1463211.637
1463025.349
1462990.34
1462923.372
1462850.397
1462785.089
1462729.801
1462685.969
1462656.015
1462644.155
1462649.929
1462673.384
1462716.552
1462776.795
1462854.336
1462947.59
1463053.882
1463172.782
1463300.022
1463435.447
1463574.704
1463717.167
1463858.747
1463998.5
1464132.851
1464260.601
1464378.664
1464485.946
1464579.738
1464659.078
1464721.673
1464766.894
1464792.916
1464799.484
1464785.249
1464750.327
1464693.978
1464616.618
1464518.001
1464398.754
1464259.171
1464099.971
1463921.765
1463725.462
1463513.659
1463285.129
1463024.117
1462735.85
1458867.411
1462473.008
1461533.572
1461365.725
1461365.687
1461337.447
1461310.667
1461297.752
1461299.625
1461317.389
1461355.205
1461414.382
1461494.067
1461596.162
1461719.862
1461862.765
1462025.636
1462204.712
1462399.073
1462605.681
1462821.837
1463045.384
1463272.618
1463501.896
1463729
1463952.756
1464168.836
1464376.239
1464571.005
1464752.321
1464916.6
1465063.219
1465189.097
1465293.969
1465375.309
1465433.255
1465465.824
1465473.596
1465455.231
1465411.652
1465341.998
1465247.526
1465127.826
1464984.407
1464817.028
1464627.41
1464417.534
1464186.936
1463918.041
1463617.691
1456749.419
1460637.339
1459636.528
1459490.644
1459530.153
1459546.486
1459571.602
1459616.777
1459682.051
1459769.801
1459882.702
1460020.417
1460183.126
1460371.999
1460584.469
1460819.992
1461076.866
1461351.571
1461643.242
1461947.265
1462262.256
1462583.798
1462909.573
1463235.758
1463559.537
1463877.588
1464186.866
1464484.473
1464767.514
1465033.504
1465279.773
1465504.252
1465704.704
1465879.575
1466027.135
1466146.386
1466236.101
1466295.927
1466325.148
1466323.955
1466291.988
1466229.999
1466137.891
1466016.868
1465866.712
1465689.241
1465486.32
1465257.842
1464984.81
1464675.881
1454414.685
1458589.554
1457526.936
1457407.65
1457491.649
1457557.525
1457639.711
1457748.893
1457884.904
1458050.313
1458245.409
1458469.463
1458723.949
1459007.569
1459317.709
1459654.455
1460013.93
1460394.156
1460792.08
1461203.837
1461627.077
1462056.879
1462491.167
1462924.814
1463355.751
1463778.97
1464192.376
1464591.354
1464973.929
1465335.959
1465675.653
1465989.418
1466275.865
1466532.027
1466757.012
1466948.508
1467106.148
1467228.402
1467315.356
1467366.132
1467381.183
1467360.269
1467304.097
1467212.909
1467087.26
1466928.176
1466738.148
1466516.581
1466244.02
1465930.485
1451873.392
1456339.728
1455215.541
1455127.312
1455259.868
1455379.759
1455524.438
1455703.941
1455918.376
1456168.046
1456452.353
1456771.415
1457125.374
1457511.553
1457928.776
1458374.981
1458846.085
1459340.659
1459853.838
1460382.96
1460923.636
1461472.179
1462024.628
1462576.728
1463124.933
1463664.722
1464192.865
1464704.966
1465198.151
1465668.279
1466112.834
1466528.137
1466912.191
1467261.903
1467575.882
1467851.655
1468088.533
1468284.737
1468440.218
1468553.721
1468625.816
1468655.696
1468644.436
1468591.554
1468498.146
1468364.451
1468193.608
1467984.236
1467717.204
1467403.672
1449139.133
1453900.718
1452715.037
1452661.537
1452846.504
1453025.096
1453237.614
1453494.421
1453793.762
1454134.481
1454515.494
1454937.529
1455398.512
1455895.597
1456428.033
1456991.738
1457583.925
1458201.283
1458839.147
1459494.652
1460162.319
1460839.226
1461519.762
1462200.617
1462876.514
1463543.855
1464197.733
1464834.607
1465449.94
1466040.363
1466601.782
1467131.237
1467625.214
1468081.307
1468496.672
1468869.529
1469197.855
1469480.506
1469716.198
1469904.327
1470044.327
1470136.04
1470179.503
1470174.69
1470121.985
1470021.816
1469877.071
1469686.058
1469429.949
1469121.697
1446226.742
1451286.513
1450039.101
1450024.382
1450265.649
1450507.328
1450793.796
1451134.124
1451524.411
1451962.622
1452448.349
1452980.418
1453555.714
1454172.395
1454827.758
1455517.309
1456238.914
1456987.433
1457759.282
1458549.855
1459354.531
1460168.996
1460988.022
1461807.557
1462622.087
1463427.691
1464218.912
1464992.041
1465741.817
1466464.748
1467155.968
1467812.391
1468429.722
1469005.426
1469535.862
1470019.196
1470452.589
1470834.913
1471164.006
1471439.468
1471659.735
1471825.053
1471934.354
1471988.094
1471985.667
1471927.977
1471816.96
1471651.376
1471412.027
1471115.378
1443152.564
1448513.065
1447203.906
1447231.858
1447532.907
1447842.638
1448208.657
1448637.79
1449124.855
1449667.451
1450264.802
1450913.772
1451611.048
1452354.796
1453140.509
1453964.711
1454823.595
1455711.959
1456626.352
1457560.948
1458511.914
1459473.418
1460441.147
1461409.476
1462373.757
1463328.54
1464269.159
1465190.353
1466087.537
1466955.69
1467790.538
1468587.463
1469342.686
1470052.134
1470712.651
1471320.924
1471874.52
1472370.88
1472808.242
1473184.842
1473499.542
1473751.269
1473939.274
1474063.052
1474122.041
1474116.592
1474048.306
1473915.663
1473699.889
1473421.681
1439934.823
1445597.857
1444226.771
1444300.971
1444665.72
1445048.066
1445498.061
1446021.104
1446610.642
1447264.374
1447979.427
1448751.777
1449578.672
1450456.421
1451380.037
1452346.53
1453350.397
1454387.371
1455452.45
1456540.458
1457646.598
1458765.132
1459891.389
1461019.33
1462144.24
1463260.056
1464362.076
1465444.328
1466502.086
1467529.631
1468522.395
1469475.079
1470383.451
1471242.763
1472049.34
1472799.195
1473489.294
1474116.382
1474678.159
1475172.121
1475596.707
1475949.965
1476230.916
1476438.166
1476571.08
1476629.105
1476613.857
1476522.48
1476338.25
1476085.776
1436592.209
1442558.915
1441125.896
1441250.257
1441682.067
1442140.433
1442678.579
1443300.085
1443997.919
1444768.281
1445606.755
1446509.109
1447472.024
1448490.244
1449559.536
1450675.334
1451832.022
1453025.483
1454249.573
1455499.855
1456770.22
1458055.806
1459350.592
1460649.386
1461946.149
1463235.605
1464511.67
1465769.028
1467001.539
1468204.009
1469370.405
1470495.743
1471574.362
1472601.601
1473572.423
1474482.686
1475328.027
1476104.918
1476809.796
1477439.829
1477992.161
1478464.526
1478854.783
1479161.248
1479382.283
1479517.159
1479566.353
1479526.469
1479382.509
1479164.825
1437920.264
1438098.251
1438599.437
1439136.926
1439766.882
1440491.402
1441302.399
1442194.141
1443161.261
1444199.691
1445304.286
1446469.345
1447690.792
1448962.555
1450279.802
1451636.978
1453028.625
1454449.418
1455893.502
1457355.624
1458829.695
1460310.299
1461791.272
1463267.02
1464731.328
1466178.319
1467601.814
1468995.733
1470354.066
1471670.603
1472939.58
1474155.086
1475311.692
1476403.971
1477426.924
1478375.806
1479246.246
1480034.201
1480735.859
1481347.936
1481867.322
1482291.473
1482617.91
1482845.243
1482972.841
1482996.236
1482903.252
1482730.875
)
;

boundaryField
{
    front_top
    {
        type            wedge;
    }
    front_middle
    {
        type            wedge;
    }
    front_bottom
    {
        type            wedge;
    }
    back_top
    {
        type            wedge;
    }
    back_middle
    {
        type            wedge;
    }
    back_bottom
    {
        type            wedge;
    }
    axis_top
    {
        type            symmetryPlane;
    }
    axis_middle
    {
        type            symmetryPlane;
    }
    axis_bottom
    {
        type            symmetryPlane;
    }
    wall_top
    {
        type            fixedFluxPressure;
        gradient        uniform 0;
        value           nonuniform List<scalar> 
23
(
1460588.762
1460422.574
1460289.561
1460196.583
1460150.929
1460162.11
1460239.758
1460393.653
1460635.371
1460977.032
1461431.241
1462012.348
1462735.85
1463617.691
1464675.881
1465930.485
1467403.672
1469121.697
1471115.378
1473421.681
1476085.776
1479164.825
1482730.875
)
;
    }
    wall_middle
    {
        type            fixedFluxPressure;
        gradient        nonuniform 0();
        value           nonuniform 0();
    }
    wall_bottom
    {
        type            fixedFluxPressure;
        gradient        nonuniform 0();
        value           nonuniform 0();
    }
    inlet
    {
        type            zeroGradient;
    }
    outlet
    {
        type            fixedValue;
        value           nonuniform 0();
    }
    procBoundary6to5
    {
        type            processor;
        value           nonuniform List<scalar> 
51
(
1433144.289
1439415.244
1439415.244
1434628.299
1434862.654
1435435.328
1436054.542
1436779.592
1437611.18
1438538.995
1439556.091
1440656.903
1441836.162
1443087.422
1444405.452
1445784.607
1447218.816
1448703.203
1450231.274
1451798.253
1453397.739
1455024.748
1456672.943
1458337.12
1460010.891
1461688.817
1463364.445
1465031.961
1466684.771
1468316.736
1469921.138
1471491.506
1473021.104
1474503.271
1475931.406
1477298.988
1478599.508
1479826.897
1480974.998
1482038.314
1483011.123
1483888.571
1484665.784
1485338.677
1485903.234
1486356.23
1486695.092
1486918.289
1487019.395
1486990.405
1486876.244
)
;
    }
    procBoundary6to7
    {
        type            processor;
        value           nonuniform List<scalar> 
51
(
1466890.743
1467278.466
1467109.565
1466974.032
1466830.645
1466657.183
1466460.305
1466248.832
1466025.979
1465790.872
1465549.326
1465308.897
1465066.061
1464825.755
1464592.978
1464362.814
1464143.529
1463931.302
1463728.98
1463740.876
1463740.876
1463542.105
1463351.907
1463173.656
1463004.347
1462845.987
1462695.881
1462555.647
1462422.813
1462298.947
1462181.224
1462071.618
1461966.974
1461869.469
1461775.899
1461688.779
1461604.859
1461526.366
1461450.518
1461379.412
1461310.603
1461246.02
1461183.424
1461124.639
1461067.814
1461014.557
1460963.237
1460915.461
1460869.382
1460824.602
1460780.514
)
;
    }
}


// ************************************************************************* //
