/*--------------------------------*- C++ -*----------------------------------*\
  =========                 |
  \\      /  F ield         | OpenFOAM: The Open Source CFD Toolbox
   \\    /   O peration     | Website:  https://openfoam.org
    \\  /    A nd           | Version:  7
     \\/     M anipulation  |
\*---------------------------------------------------------------------------*/
FoamFile
{
    version     2.0;
    format      ascii;
    class       volScalarField;
    location    "0.0006";
    object      rho;
}
// * * * * * * * * * * * * * * * * * * * * * * * * * * * * * * * * * * * * * //

dimensions      [1 -3 0 0 0 0 0];

internalField   nonuniform List<scalar> 
1167
(
953.7646806
953.7395094
953.6855653
953.6058909
953.5022355
953.3763146
953.229449
953.0629943
952.8782645
952.6767051
952.4594554
952.2275682
951.9823631
951.7248381
951.4558417
951.1767078
950.8879816
950.5907644
950.2858043
953.6045674
953.5794706
953.5256862
953.4463147
953.3431222
953.21759
953.071157
952.9051929
952.7211321
952.5202665
952.3036591
952.0725411
951.8282109
951.5714463
951.3034477
951.025148
950.7373175
950.4411474
950.1370907
949.8262952
949.5091979
949.1867433
948.8594058
948.5279488
948.1928384
947.854742
947.5140876
947.171468
946.8272219
946.4819224
946.1358074
945.7894349
945.4429614
945.0969493
944.7514395
944.4069928
944.0635743
943.7217573
943.381427
943.043151
942.7067453
942.3727783
942.0410374
941.7120379
941.3855513
941.0620591
940.7413529
940.42385
940.1093555
939.7981785
953.4474584
953.4224705
953.3689195
953.2898252
953.1869237
953.0617458
952.9157265
952.7503146
952.566912
952.3666166
952.1506253
951.9203951
951.6767591
951.4207632
951.1537022
950.8761948
950.5893958
950.2940743
949.991032
949.6811995
949.3650877
949.0437023
948.7173408
948.3870124
948.0528884
947.7159597
947.3763227
947.0348781
946.6916767
946.3475484
946.0025065
945.6572855
945.31192
944.9670325
944.6226482
944.2792932
943.9370166
943.596262
943.2570772
942.919831
942.5845624
942.2516052
941.9209764
941.5929644
941.2675528
940.9450414
940.6253635
940.3088394
939.9952978
939.6851056
953.2933862
953.2684652
953.2150575
953.1361751
953.0335497
952.908708
952.7631461
952.5983321
952.4154256
952.2156735
952.0004613
951.7708912
951.527919
951.2728312
951.0064991
950.7298068
950.4439495
950.1494452
949.8474492
949.5384832
949.2234583
948.9029765
948.5777255
948.2483304
947.9153445
947.5793829
947.2409014
946.9004421
946.558414
946.215282
945.8714171
945.5272083
945.1830254
944.839151
944.4959404
944.1535984
943.8124901
943.4727434
943.1347141
942.7984611
942.4643327
942.1323587
941.8028448
941.4757923
941.151472
940.8299015
940.5112926
940.1956784
939.8831642
939.573856
953.1421076
953.1172493
953.0639762
952.9852928
952.8829268
952.7584727
952.6134225
952.4490288
952.2665906
952.0674427
951.8529169
951.623939
951.3816894
951.1273772
950.8617393
950.5859765
950.300874
950.0072699
949.7061662
949.3980546
949.0840593
948.7644499
948.440276
948.1117859
947.7799092
947.4448893
947.107536
946.7680388
946.4271595
946.0850043
945.742296
945.3990827
945.0560638
944.7131877
944.371135
944.0297941
943.6898397
943.3511029
943.0142028
942.6789524
942.3459342
942.0149487
941.6865232
941.3604226
941.0371806
940.7165412
940.3989885
940.0842732
939.7727726
939.4643358
952.9935534
952.9687531
952.9156048
952.8371061
952.7350854
952.6110305
952.4663244
952.3023226
952.1203325
951.921873
951.7078644
951.4794424
951.2379873
950.9842979
950.7193851
950.444441
950.1600553
949.8673947
949.5670633
949.259943
948.9467647
948.6281416
948.3048609
947.9773617
947.6464502
947.3124425
946.9760908
946.6376351
946.297776
945.9566904
945.615009
945.2729005
944.9309001
944.5891483
944.2481003
943.9079025
943.5689374
943.2313372
942.895417
942.561292
942.2292473
941.899366
941.5718932
941.2468744
940.9245675
940.604964
940.2883404
939.9745828
939.664017
939.3564553
952.8476539
952.8229065
952.7699267
952.6917077
952.5899473
952.4661611
952.3217703
952.1581284
951.9767569
951.7787367
951.5652062
951.3374541
951.0965908
950.8434815
950.5793799
950.3050795
950.0214654
949.7296064
949.4300062
949.1238339
948.8114341
948.4937946
948.1713344
947.8448604
947.5148161
947.1818642
946.8464114
946.5090432
946.170108
945.8301278
945.4893993
945.1484145
944.80738
944.466755
944.1266838
943.7876175
943.4496332
943.1131599
942.7782132
942.4452062
942.1141298
941.7853453
941.4588204
941.1348766
940.8134994
940.4949479
940.1792214
939.8664718
939.5567733
939.2501832
952.7044868
952.6798215
952.626963
952.5488937
952.4473293
952.3237833
952.1796751
952.0165236
951.8355579
951.6379343
951.4248685
951.1977486
950.9573836
950.7048958
950.4414638
950.1677587
949.884964
949.593761
949.2950114
948.9895722
948.6779876
948.3612077
948.0395599
947.7140436
947.3848358
947.0529025
946.7183194
946.3820099
946.0439754
945.7050781
945.3652905
945.0254045
944.6853398
944.3458099
944.0067351
943.6687609
943.3317875
942.9963959
942.6624584
942.3305253
942.0004462
941.6727214
941.3471594
941.0242693
940.7038184
940.3863131
940.071479
939.7597303
939.4508918
939.145263
952.5638848
952.5392595
952.4864876
952.4085469
952.3071512
952.1838127
952.040081
951.8772871
951.6966345
951.4993586
951.2868685
951.0601595
950.8202379
950.5684191
950.3054946
950.0324106
949.7502958
949.4596946
949.1617634
948.8569818
948.5462619
948.2301924
947.909462
947.5847149
947.2564693
946.9253513
946.5917706
946.2563217
945.9193241
945.5813275
945.2426134
944.9036522
944.5646776
944.2260961
943.8881281
943.5511179
943.2152579
942.8808326
942.5480076
942.217043
941.8880624
941.5612912
941.2368095
940.9148575
940.5954573
940.2788676
939.9650031
939.654173
939.3462166
939.0415131
952.4257194
952.4011264
952.3484242
952.2705877
952.1693293
952.0462827
951.9028352
951.7402706
951.5598781
951.363012
951.150914
950.9245536
950.6851295
950.4337947
950.1713125
949.8988919
949.6172835
949.3273411
949.0300426
948.7258739
948.4159441
948.1005309
947.7806657
947.4566403
947.1293104
946.7989664
946.4663547
946.1317271
945.7957393
945.4586147
945.1209499
944.7828946
944.4449932
944.1073478
943.7704761
943.434423
943.0996704
942.7662091
942.4344951
942.1045
941.7766183
941.4508033
941.1274039
940.806393
940.4880534
940.1723716
939.8595214
939.549565
939.24258
938.9387035
952.2899157
952.2653459
952.2126942
952.1349335
952.0339168
951.9110568
951.7677569
951.6053648
951.4252019
951.2287173
951.0168674
950.7907832
950.5518528
950.3008528
950.0388093
949.7669008
949.4857232
949.196428
948.8996234
948.5961579
948.2867857
947.9720876
947.652905
947.3296191
947.0030739
946.6735093
946.3417653
946.0079636
945.6729059
945.3366654
944.9999779
944.6628523
944.3259587
943.9892863
943.653448
943.318398
942.9846925
942.6522464
942.3215917
941.9926097
941.6657878
941.3409592
941.0186226
940.6985587
940.3812841
940.0665153
939.7546826
939.4456021
939.139588
938.8365361
952.1563963
952.1318391
952.0792881
952.0016867
951.9007374
951.777949
951.6347372
951.4724514
951.2926008
951.0962599
950.8845763
950.6588377
950.420156
950.1694012
949.9078184
949.636217
949.3554605
949.0666395
948.7702413
948.4673921
948.1584956
947.8444872
947.525861
947.2033335
946.8774161
946.5486838
946.2176358
945.8847285
945.5504397
945.2151574
944.8792963
944.5431758
944.2071613
943.8715395
943.5366232
943.2026559
942.8698986
942.5385565
942.2088721
941.8809978
941.5551465
941.2314198
940.9100484
940.5910704
940.2747358
939.9609726
939.6500825
939.3419159
939.0368434
938.7346167
952.0252348
952.0007146
951.9481709
951.8705722
951.7696288
951.6468515
951.5036583
951.34155
951.1617728
950.9654842
950.7538904
950.5284058
950.2898368
950.0392926
949.7779887
949.5065858
949.2262419
948.9376844
948.6417153
948.3392473
948.0307687
947.7173116
947.3991491
947.0772911
946.7519182
946.4239401
946.0935164
945.7614387
945.4278596
945.0934822
944.7584005
944.4232449
944.0880754
943.7534763
943.4194594
943.086558
942.7547374
942.4244932
942.0957769
941.7690117
941.4441357
941.1215191
940.8011223
940.4832435
940.1678582
939.8551521
939.5451776
939.2380222
938.9338122
938.6325055
951.8962316
951.8716966
951.8191227
951.7414811
951.6404851
951.5176483
951.3744949
951.2124009
951.0325612
950.8362168
950.6247609
950.399246
950.1606655
949.9103147
949.6490481
949.3777615
949.0976467
948.8092209
948.5135946
948.2113334
947.9032802
947.5901227
947.2724557
946.9510032
946.6261858
946.2987409
945.9689429
945.6375137
945.304648
944.9710162
944.636727
944.3023995
943.9681021
943.6344056
943.3013267
942.969387
942.6385513
942.3093225
941.9816191
941.6559046
941.3320409
941.010506
940.6910996
940.3743258
940.0599035
939.7482709
939.4392273
939.1330991
938.8297646
938.5294213
951.7692543
951.7446878
951.6920476
951.6143102
951.513193
951.3902945
951.2470802
951.084813
950.9047924
950.7083495
950.4968089
950.2711213
950.0324622
949.7820688
949.5206826
949.249483
948.9693032
948.6809227
948.3854007
948.0831862
947.7754018
947.462389
947.1450821
946.8238723
946.499521
946.172422
945.8431916
945.5122229
945.1800334
944.8469658
944.5134485
944.1797881
943.8463595
943.513424
943.1812977
942.8501959
942.5203839
942.1920632
941.8654329
941.5406698
941.2179136
940.897361
940.5790808
940.2632897
939.9499409
939.6393064
939.3312568
939.026133
938.7236933
938.4243334
951.6442107
951.6195929
951.5668444
951.4889496
951.3877155
951.2646699
951.1211822
950.9586151
950.7782742
950.5816762
950.3697941
950.1437633
949.9049464
949.6542261
949.3925586
949.1212211
948.8407779
948.5523401
948.2566208
947.954398
947.6465378
947.3335398
947.0163263
946.695191
946.3710931
946.0441571
945.7153211
945.3846437
945.0529718
944.720316
944.3874316
944.054306
943.7216287
943.3893442
943.058076
942.727726
942.3988686
942.0713947
941.7457917
941.4219419
941.1002709
940.7806845
940.4635278
940.148721
939.8364913
939.5268401
939.2198896
938.915715
938.6143079
938.3158491
951.5210041
951.4963121
951.4434122
951.365398
951.2639273
951.1405278
950.9966352
950.8336196
950.6529574
950.4558614
950.2434463
950.0169729
949.7776805
949.5264108
949.2643817
948.9925153
948.7115983
948.4228196
948.1266497
947.8241948
947.5159722
947.2028307
946.8853533
946.5641871
946.2399385
945.9130853
945.584237
945.2537633
944.9222297
944.5899027
944.2573069
943.9246491
943.5924091
943.2607274
942.930036
942.600413
942.2722731
941.9456322
941.6208689
941.2979327
940.977217
940.6585992
940.3424952
940.0286629
939.7175525
939.408895
939.1030701
938.7998732
938.4995581
938.2020203
951.3996006
951.3748428
951.3217982
951.2434704
951.1415955
951.0177101
950.8732589
950.7097036
950.5284572
950.3306385
950.1174637
949.8903811
949.6502818
949.3982142
949.1355216
948.8628344
948.5812838
948.2917109
947.9948634
947.691764
947.3828534
947.0692291
946.7511478
946.4296125
946.1048705
945.7777678
945.4485645
945.1179834
944.7862389
944.4539512
944.1213057
943.7888529
943.4567326
943.1254245
942.7950204
942.4659419
942.1382644
941.8123262
941.4881802
941.1660968
940.8461454
940.5285145
940.2132859
939.9005252
939.5903765
939.2828081
938.9780312
938.6758797
938.3766706
938.0801077
951.2799277
951.2550384
951.2017141
951.1229758
951.020571
950.8960467
950.7508825
950.5866509
950.4045019
950.2057129
949.9916494
949.7635307
949.5223184
949.2692889
949.0054311
948.731573
948.4490108
948.1582564
947.8604237
947.5561791
947.2463268
946.9316132
946.6126177
946.2901253
945.9645292
945.6366174
945.3066705
944.9754344
944.6430796
944.310303
943.9772149
943.644462
943.312087
942.9806814
942.6502209
942.3212699
941.9937456
941.6681619
941.3443664
941.0228755
940.7034708
940.3866598
940.0721625
939.7603811
939.451124
939.1446677
938.8408905
938.5399333
938.2417702
937.9463688
951.1617704
951.1367143
951.0830351
951.0037753
950.9006954
950.7753551
950.6294178
950.4641255
950.2808101
950.0807736
949.8655306
949.6359964
949.3933331
949.1389255
948.8734898
948.5981983
948.3139933
948.0216315
947.7222622
947.4163477
947.1050128
946.7886429
946.468204
946.1440988
945.8171201
945.4876812
945.1564529
944.8237989
944.4902879
944.156244
943.8221724
943.4883414
943.1551911
942.8229292
942.4919405
942.1624023
941.8346229
941.5087382
941.1849889
940.863511
940.5444629
940.2279761
939.9140819
939.6029546
939.2945249
938.989019
938.6862267
938.3864681
938.0894077
937.795323
951.0450148
951.0197517
950.9656315
950.8857226
950.7818013
950.6556009
950.508491
950.3418645
950.1570761
949.9556163
949.7386599
949.5073076
949.2629142
949.0065077
948.7389963
948.4617443
948.1753337
947.8809073
947.579243
947.2711473
946.9574871
946.6388311
946.3160903
945.9896427
945.6603966
945.3286238
944.9951838
944.6602469
944.3246103
943.988399
943.6523457
943.3165235
942.981593
942.6475761
942.3150866
941.9841021
941.655164
941.3281907
941.0037027
940.6815496
940.3622395
940.0455121
939.7318242
939.4209249
939.1131536
938.808305
938.5065738
938.2078269
937.9120749
937.6193157
950.9295437
950.9040278
950.8493686
950.7686655
950.6638607
950.5364286
950.3878618
950.2195864
950.0330509
949.8296939
949.6105908
949.3769977
949.1303115
948.8713515
948.6013505
948.3213164
948.0320549
947.7347994
947.4300594
947.1189971
946.80209
946.4803232
946.1541885
945.8245037
945.4917598
945.1566699
944.8196599
944.4813631
944.142148
943.8026132
943.4630506
943.1240248
942.7857432
942.4487502
942.1131959
941.7795738
941.4479663
941.1188257
940.7922011
940.4684768
940.1476531
939.8299938
939.5155162
939.2043671
938.8965756
938.5921374
938.2911289
937.9933545
937.6989763
937.4076589
950.8152375
950.789417
950.7341564
950.6526101
950.5465606
950.417613
950.2672764
950.0969917
949.9083967
949.7025933
949.4808404
949.2445886
948.9948726
948.7327079
948.4595071
948.1759175
947.883138
947.5820057
947.2733755
946.9581722
946.6370126
946.3108557
945.9801398
945.6458048
945.3082072
944.9682152
944.6261187
944.2827003
943.9382486
943.5934537
943.2486041
942.9042856
942.5607972
942.2186461
941.8781351
941.5396687
941.2035467
940.870113
940.5396389
940.2123931
939.8885513
939.5683469
939.2518649
938.9393058
938.6306031
938.32596
938.0251078
937.7282802
937.4350869
937.1456927
950.6199186
950.5372302
950.4296928
950.2989304
950.1464693
949.9739292
949.782646
949.573874
949.3489805
949.1093411
948.8558909
948.5899378
948.3125107
948.024499
947.7271637
947.4210715
947.1074419
946.7867674
946.4601107
946.1279548
945.7912214
945.4503652
945.1062409
944.7592026
944.4100806
944.0591382
943.7072381
943.3545359
943.0019139
942.6494761
942.2980354
941.9477726
941.5993632
941.2530497
940.9094178
940.5687507
940.231527
939.8979907
939.5685372
939.2433666
938.9227884
938.6068711
938.2958589
937.989613
937.6883387
937.3916971
937.0998983
936.8124118
)
;

boundaryField
{
    front_top
    {
        type            wedge;
    }
    front_middle
    {
        type            wedge;
    }
    front_bottom
    {
        type            wedge;
    }
    back_top
    {
        type            wedge;
    }
    back_middle
    {
        type            wedge;
    }
    back_bottom
    {
        type            wedge;
    }
    axis_top
    {
        type            symmetryPlane;
    }
    axis_middle
    {
        type            symmetryPlane;
    }
    axis_bottom
    {
        type            symmetryPlane;
    }
    wall_top
    {
        type            calculated;
        value           nonuniform List<scalar> 
23
(
939.6430448
939.5304177
939.4196067
939.3105815
939.203234
939.0973802
938.9928729
938.8895312
938.787126
938.685382
938.5839829
938.4823028
938.3796216
938.2749445
938.1668843
938.0535003
937.9321881
937.79901
937.6485563
937.4732387
937.2625524
937.0016316
936.6697079
)
;
    }
    wall_middle
    {
        type            calculated;
        value           nonuniform 0();
    }
    wall_bottom
    {
        type            calculated;
        value           nonuniform 0();
    }
    inlet
    {
        type            calculated;
        value           nonuniform 0();
    }
    outlet
    {
        type            calculated;
        value           nonuniform 0();
    }
    procBoundary6to5
    {
        type            processor;
        value           nonuniform List<scalar> 
51
(
950.7020686
950.6759226
950.6759226
950.5063979
950.4223607
950.3130633
950.1801502
950.0252566
949.8499167
949.6554074
949.4430715
949.2144703
948.9706088
948.7126407
948.4419722
948.1593305
947.8659791
947.5627476
947.2505744
946.9303583
946.6028116
946.2688323
945.9289847
945.5841101
945.2347363
944.8815809
944.5251731
944.1660997
943.8049736
943.4422332
943.0785989
942.7143474
942.3503518
941.9868036
941.6245546
941.2638777
940.9055288
940.5499301
940.1976956
939.8493134
939.5052799
939.16613
938.8322221
938.5040277
938.1817567
937.8656975
937.5559408
937.2525415
936.9554686
936.6644227
936.3793179
)
;
    }
    procBoundary6to7
    {
        type            processor;
        value           nonuniform List<scalar> 
51
(
953.9278027
953.9025539
953.8484435
953.7685234
953.6645484
953.538066
953.3906777
953.2237128
953.0384167
952.8360513
952.6180961
952.385497
952.1393197
951.8809892
951.61117
951.3309645
951.0413588
950.7430189
950.4371277
949.9738734
949.9738734
949.6558294
949.3322058
949.0038912
948.671249
948.3351392
947.9958368
947.6541563
947.3103216
946.9650389
946.6185142
946.2713585
945.9237637
945.57624
945.229007
944.882453
944.5368002
944.1923428
943.8493301
943.5079707
943.1685164
942.8311
942.4959728
942.1632339
941.8331022
941.5056428
941.181043
940.8593833
940.5407955
940.2253783
939.9131573
)
;
    }
}


// ************************************************************************* //
