/*--------------------------------*- C++ -*----------------------------------*\
  =========                 |
  \\      /  F ield         | OpenFOAM: The Open Source CFD Toolbox
   \\    /   O peration     | Website:  https://openfoam.org
    \\  /    A nd           | Version:  7
     \\/     M anipulation  |
\*---------------------------------------------------------------------------*/
FoamFile
{
    version     2.0;
    format      ascii;
    class       volScalarField;
    location    "0.0006";
    object      thermo:alpha;
}
// * * * * * * * * * * * * * * * * * * * * * * * * * * * * * * * * * * * * * //

dimensions      [1 -1 -1 0 0 0 0];

internalField   nonuniform List<scalar> 
1167
(
0.0001213950979
0.0001213936518
0.0001213905528
0.0001213859755
0.0001213800206
0.0001213711902
0.0001213607012
0.0001213488131
0.0001213356199
0.0001213212246
0.0001213057088
0.0001212891476
0.0001212696048
0.0001212476097
0.0001212246349
0.0001211970042
0.0001211683021
0.0001211387558
0.0001211084398
0.0001213858995
0.0001213844577
0.0001213813679
0.0001213761896
0.0001213688197
0.0001213598542
0.0001213493961
0.0001213375431
0.0001213243976
0.0001213100519
0.000121294582
0.0001212773068
0.0001212564387
0.0001212345086
0.0001212096034
0.0001211819377
0.0001211533246
0.0001211238824
0.0001210936563
0.0001210627602
0.0001210312377
0.0001209960084
0.0001209588753
0.0001209183429
0.000120875623
0.0001208354278
0.0001207967875
0.0001207548905
0.0001207110025
0.0001206637162
0.0001206147201
0.0001205692372
0.0001205250687
0.0001204771102
0.0001204281963
0.0001203794329
0.0001203308151
0.000120282424
0.0001202342434
0.0001201818576
0.0001201294824
0.0001200820251
0.0001200350638
0.0001199840332
0.0001199331991
0.0001198870688
0.0001198416728
0.0001197928661
0.0001197438961
0.0001196987683
0.0001213762713
0.0001213744867
0.0001213706621
0.0001213650132
0.0001213576641
0.000121348724
0.0001213382954
0.0001213264818
0.0001213133833
0.0001212990783
0.0001212836524
0.0001212643121
0.0001212435033
0.0001212212657
0.0001211947173
0.0001211671303
0.0001211386198
0.0001211092619
0.0001210791366
0.0001210483363
0.0001210162397
0.0001209797818
0.0001209424866
0.0001209003763
0.0001208579035
0.0001208196858
0.0001207810074
0.0001207374766
0.0001206934091
0.0001206446942
0.0001205963995
0.0001205523908
0.0001205075436
0.0001204587178
0.0001204099633
0.0001203613545
0.0001203128983
0.0001202646576
0.0001202151638
0.0001201626578
0.0001201120053
0.0001200648718
0.000120016565
0.0001199654934
0.0001199161565
0.0001198705049
0.0001198242439
0.0001197749578
0.0001197266686
0.0001196827639
0.0001213652676
0.0001213634877
0.0001213596734
0.0001213540397
0.0001213467102
0.0001213377941
0.0001213273982
0.0001213156273
0.0001213025642
0.0001212882981
0.0001212711505
0.0001212515431
0.0001212307909
0.0001212065598
0.0001211800839
0.000121152578
0.000121124161
0.0001210948844
0.0001210648631
0.0001210341489
0.0001210001733
0.0001209638179
0.0001209246885
0.0001208826972
0.000120842302
0.0001208041939
0.0001207637425
0.0001207203374
0.0001206745444
0.0001206259706
0.0001205796883
0.0001205358085
0.000120489296
0.0001204406136
0.0001203920252
0.0001203435598
0.0001202952691
0.0001202471711
0.0001201961131
0.0001201437617
0.0001200949855
0.0001200479912
0.0001199981719
0.0001199472497
0.0001198997252
0.0001198542069
0.0001198064819
0.0001197573375
0.0001197107972
0.0001196670177
0.0001213544633
0.000121352688
0.0001213488833
0.0001213432637
0.0001213359528
0.0001213270644
0.000121316705
0.0001213049642
0.0001212919345
0.0001212768714
0.0001212585488
0.000121238992
0.0001212173814
0.0001211921003
0.0001211656933
0.0001211382798
0.0001211099379
0.0001210807508
0.0001210508182
0.0001210199795
0.0001209843599
0.0001209481035
0.0001209071664
0.0001208652905
0.0001208269396
0.0001207889383
0.0001207467398
0.0001207034573
0.000120655964
0.0001206075284
0.0001205632279
0.0001205194751
0.000120471322
0.000120422781
0.0001203743565
0.0001203260328
0.0001202779054
0.0001202298027
0.0001201773506
0.0001201253671
0.000120078225
0.0001200311965
0.0001199800606
0.0001199293022
0.0001198835473
0.0001198381607
0.0001197889949
0.0001197399905
0.0001196951724
0.0001196515162
0.0001213438537
0.0001213420825
0.0001213382867
0.0001213326804
0.0001213253941
0.0001213165342
0.0001213061994
0.0001212944865
0.0001212813887
0.0001212644383
0.00012124616
0.0001212266506
0.000121203096
0.0001211778768
0.000121151542
0.0001211242099
0.0001210959392
0.0001210668459
0.00012103699
0.0001210043121
0.0001209687852
0.0001209311155
0.0001208899037
0.0001208493366
0.0001208118013
0.0001207728633
0.0001207299818
0.000120685759
0.0001206376484
0.0001205905589
0.0001205470013
0.0001205020196
0.0001204536026
0.0001204052207
0.0001203569385
0.0001203087766
0.0001202607893
0.0001202111563
0.0001201588568
0.0001201087111
0.0001200617068
0.0001200132003
0.0001199622126
0.0001199132294
0.0001198676068
0.0001198210675
0.0001197717659
0.0001197237366
0.0001196797791
0.0001196362467
0.0001213334337
0.0001213316662
0.0001213278825
0.0001213222961
0.0001213150284
0.0001213061877
0.0001212958754
0.0001212841883
0.0001212691259
0.0001212522131
0.0001212339756
0.000121212984
0.0001211890398
0.0001211638783
0.0001211376241
0.000121110356
0.000121082162
0.0001210531484
0.0001210233653
0.0001209888719
0.0001209534334
0.0001209139889
0.0001208728817
0.000120834307
0.0001207968701
0.0001207562159
0.000120713449
0.0001206675555
0.0001206195757
0.0001205744247
0.0001205309886
0.0001204843961
0.0001204361158
0.0001203878934
0.0001203397495
0.0001202917478
0.0001202438993
0.0001201927573
0.0001201406093
0.000120092278
0.0001200454107
0.0001199954472
0.0001199446072
0.0001198973761
0.0001198518851
0.0001198039368
0.0001197547749
0.0001197084346
0.0001196645998
0.0001196212049
0.0001213232088
0.0001213214472
0.0001213176721
0.0001213120964
0.0001213048428
0.0001212960192
0.0001212857271
0.0001212725224
0.0001212570662
0.0001212401873
0.0001212216738
0.0001211990959
0.0001211752013
0.0001211501016
0.0001211239139
0.000121096705
0.0001210685924
0.0001210396441
0.0001210082903
0.0001209736413
0.0001209374699
0.0001208970868
0.0001208563917
0.0001208194684
0.0001207820927
0.0001207397745
0.0001206971185
0.0001206495726
0.0001206017204
0.0001205584834
0.0001205150993
0.0001204669816
0.0001204188385
0.0001203707712
0.0001203227684
0.0001202749213
0.0001202267955
0.0001201745783
0.0001201230322
0.0001200760437
0.0001200289385
0.0001199779116
0.0001199274248
0.0001198817196
0.0001198363598
0.0001197870213
0.0001197379983
0.0001196933263
0.0001196496133
0.0001196063545
0.0001213131671
0.0001213114084
0.0001213076394
0.000121302073
0.0001212948314
0.0001212860226
0.0001212745344
0.0001212606303
0.0001212452008
0.0001212283516
0.0001212079553
0.0001211854182
0.0001211615677
0.0001211365345
0.0001211103972
0.0001210832501
0.0001210552051
0.0001210263166
0.0001209931747
0.0001209586003
0.0001209206775
0.0001208803849
0.0001208416347
0.0001208047987
0.0001207657273
0.000120723513
0.0001206792664
0.0001206317802
0.0001205857954
0.0001205427076
0.0001204977319
0.0001204497451
0.0001204017564
0.0001203538233
0.0001203059771
0.0001202582665
0.000120208653
0.0001201565862
0.0001201068306
0.0001200599792
0.0001200114403
0.0001199605619
0.0001199118048
0.0001198662324
0.0001198195872
0.0001197702909
0.0001197223807
0.0001196783857
0.0001196347975
0.0001195916697
0.0001213032994
0.000121301543
0.000121297779
0.00012129222
0.0001212849882
0.0001212750641
0.0001212628123
0.0001212489278
0.0001212335206
0.0001212155247
0.0001211944401
0.0001211719377
0.0001211481366
0.0001211231515
0.0001210970582
0.000121069977
0.0001210419824
0.0001210119578
0.0001209782323
0.0001209435744
0.0001209040646
0.0001208638557
0.0001208270254
0.0001207902712
0.0001207495158
0.0001207074002
0.0001206615125
0.0001206141425
0.0001205700408
0.0001205270642
0.0001204805079
0.0001204326494
0.0001203848126
0.0001203370121
0.0001202893211
0.000120241746
0.0001201906571
0.0001201387404
0.0001200907617
0.0001200440475
0.0001199940884
0.0001199433589
0.0001198963184
0.0001198508792
0.0001198028633
0.0001197537083
0.0001197074508
0.0001196635795
0.0001196201288
0.0001195771181
0.0001212936004
0.0001212918457
0.0001212880853
0.0001212825317
0.0001212740079
0.0001212635145
0.0001212512754
0.0001212374055
0.0001212217069
0.0001212021745
0.0001211811146
0.0001211586396
0.0001211348876
0.0001211099358
0.0001210838862
0.0001210568558
0.0001210289041
0.000120997107
0.0001209634375
0.0001209270382
0.0001208875994
0.0001208487383
0.0001208125335
0.0001207750531
0.0001207334219
0.0001206908373
0.0001206438756
0.0001205970952
0.000120554382
0.0001205110468
0.0001204633819
0.000120415655
0.0001203679609
0.0001203202981
0.0001202727534
0.0001202247109
0.0001201727561
0.0001201215866
0.0001200747791
0.0001200277184
0.0001199768321
0.0001199265472
0.0001198809204
0.0001198356153
0.0001197862382
0.0001197372254
0.0001196926119
0.0001196488646
0.0001196055513
0.0001195626573
0.0001212840646
0.0001212823107
0.0001212778831
0.0001212712552
0.0001212626332
0.0001212521459
0.0001212399142
0.0001212260535
0.0001212085251
0.0001211890069
0.0001211679635
0.0001211455229
0.0001211217957
0.0001210968682
0.0001210708644
0.0001210438646
0.0001210151476
0.0001209823838
0.0001209487605
0.0001209106231
0.000120871245
0.0001208342646
0.0001207981229
0.000120758953
0.0001207174018
0.000120673167
0.0001206263038
0.0001205813852
0.00012053877
0.0001204938449
0.000120446297
0.0001203987124
0.0001203511427
0.0001203036287
0.0001202562145
0.0001202066909
0.0001201548838
0.0001201054927
0.0001200588225
0.0001200103403
0.0001199596052
0.0001199110418
0.0001198655517
0.0001198189041
0.0001197696475
0.0001197218102
0.0001196778068
0.0001196341888
0.0001195910088
0.0001195482316
0.0001212732664
0.0001212711722
0.0001212666844
0.0001212600568
0.0001212514352
0.0001212409489
0.0001212287189
0.0001212133911
0.0001211955196
0.0001211760066
0.0001211549721
0.0001211325568
0.0001211088407
0.0001210839342
0.0001210579581
0.000121030978
0.0001210004891
0.0001209677552
0.0001209328459
0.0001208942872
0.0001208553945
0.0001208198391
0.00012078375
0.0001207428838
0.000120701402
0.0001206555083
0.0001206087334
0.0001205656682
0.0001205231435
0.0001204766193
0.0001204291818
0.0001203817337
0.0001203342837
0.0001202869145
0.0001202396276
0.0001201886156
0.0001201369544
0.0001200893458
0.0001200428127
0.0001199929041
0.0001199423207
0.0001198954854
0.0001198501332
0.0001198021143
0.0001197530056
0.0001197068324
0.0001196629585
0.0001196194837
0.0001195764257
0.0001195327079
0.0001212622483
0.0001212601528
0.0001212556625
0.0001212490312
0.0001212404051
0.0001212299137
0.0001212166662
0.0001212005525
0.0001211826747
0.0001211631561
0.0001211421354
0.000121119717
0.0001210959998
0.0001210711125
0.0001210451401
0.0001210176774
0.0001209859013
0.0001209531823
0.000120916513
0.0001208779808
0.0001208409335
0.0001208054121
0.0001207677654
0.0001207267834
0.0001206841382
0.000120637785
0.0001205921208
0.0001205498703
0.0001205065141
0.0001204592818
0.0001204119564
0.0001203646256
0.0001203172991
0.0001202700576
0.000120222053
0.0001201703732
0.0001201196479
0.0001200730423
0.0001200260071
0.0001199752932
0.0001199252848
0.0001198797715
0.0001198344797
0.0001197851547
0.0001197361959
0.0001196917044
0.0001196479623
0.0001196046328
0.0001195616988
0.0001195166546
0.0001212514033
0.000121249305
0.0001212448091
0.0001212381696
0.0001212295332
0.0001212182368
0.0001212039999
0.000121187869
0.0001211699732
0.0001211504449
0.0001211294157
0.0001211069802
0.0001210832552
0.0001210583637
0.0001210323794
0.0001210031256
0.000120971342
0.000120937844
0.0001209001709
0.0001208616446
0.0001208264283
0.0001207909233
0.0001207515265
0.0001207105755
0.0001206662075
0.0001206199033
0.0001205760901
0.0001205338982
0.0001204888724
0.00012044172
0.0001203945039
0.0001203472675
0.000120300064
0.0001202529302
0.0001202033657
0.0001201518163
0.0001201029201
0.000120056443
0.0001200079169
0.0001199573511
0.00011990913
0.0001198637558
0.0001198170372
0.0001197678652
0.0001197202488
0.0001196762815
0.0001196326801
0.0001195894928
0.0001195466855
0.0001195002892
0.0001212407234
0.0001212386208
0.0001212341155
0.0001212274626
0.0001212179804
0.0001212057485
0.0001211914845
0.0001211753237
0.0001211573961
0.0001211378524
0.0001211167892
0.0001210943196
0.0001210705789
0.0001210456549
0.000121019356
0.0001209885755
0.0001209567621
0.0001209214523
0.000120883754
0.0001208467318
0.0001208118113
0.000120775553
0.0001207351114
0.0001206939066
0.0001206480272
0.0001206017461
0.0001205597891
0.0001205176344
0.0001204708843
0.0001204237901
0.0001203766636
0.000120329503
0.0001202824058
0.0001202353642
0.0001201841812
0.0001201327489
0.0001200857184
0.0001200393611
0.0001199892887
0.0001199388652
0.0001198924777
0.0001198472402
0.0001197990444
0.0001197500257
0.0001197041911
0.000119660363
0.0001196169172
0.0001195738643
0.000119529874
0.0001194833949
0.0001212302003
0.0001212280914
0.0001212235172
0.0001212157619
0.0001212056747
0.0001211934076
0.0001211791033
0.000121162898
0.0001211449384
0.0001211253451
0.000121104229
0.0001210817154
0.0001210579274
0.0001210329488
0.0001210048157
0.0001209739752
0.0001209417546
0.000120904941
0.0001208671853
0.0001208319629
0.0001207970012
0.0001207588889
0.0001207184137
0.0001206753616
0.000120629461
0.0001205850001
0.0001205430785
0.0001204993104
0.0001204523751
0.0001204053275
0.0001203582418
0.0001203111474
0.0001202641121
0.0001202157321
0.0001201642466
0.0001201142491
0.0001200677975
0.0001200204039
0.0001199698382
0.0001199204568
0.0001198750594
0.000119829419
0.0001197801983
0.0001197313911
0.0001196873565
0.000119643669
0.0001196003825
0.000119557468
0.000119512004
0.0001194656683
0.0001212191619
0.0001212167008
0.0001212114276
0.0001212036411
0.0001211935137
0.0001211811983
0.0001211668385
0.0001211505795
0.0001211325619
0.0001211128968
0.0001210917052
0.000121069131
0.0001210452628
0.0001210199976
0.0001209901978
0.0001209592642
0.0001209251421
0.0001208882273
0.0001208513218
0.0001208169413
0.00012078184
0.000120741856
0.0001207013038
0.0001206563112
0.0001206103407
0.0001205677498
0.000120525783
0.000120480088
0.0001204331228
0.0001203860808
0.0001203389881
0.0001202919227
0.0001202449044
0.0001201946668
0.000120143226
0.0001200952133
0.0001200488272
0.0001199996481
0.0001199491785
0.0001199017954
0.0001198565062
0.0001198091635
0.0001197600791
0.0001197132545
0.000119669356
0.0001196258227
0.0001195826845
0.0001195394626
0.0001194928666
0.0001194466828
0.0001212072653
0.000121204791
0.0001211994901
0.0001211916628
0.0001211814827
0.0001211691038
0.0001211546731
0.0001211383469
0.0001211202395
0.000121100478
0.000121079198
0.0001210565208
0.000121032542
0.0001210053723
0.0001209754403
0.0001209443009
0.0001209082799
0.0001208712145
0.0001208360723
0.0001208015619
0.0001207644342
0.0001207243114
0.0001206822175
0.0001206365654
0.0001205915582
0.000120549756
0.0001205068004
0.0001204599073
0.0001204128558
0.0001203657445
0.0001203185892
0.0001202714813
0.0001202237283
0.0001201721316
0.0001201212999
0.0001200747335
0.0001200278952
0.0001199772017
0.0001199270295
0.0001198815224
0.0001198363106
0.0001197870752
0.0001197381048
0.0001196934184
0.0001196496461
0.0001196062703
0.0001195632736
0.0001195182916
0.0001194718585
0.0001194272834
0.0001211955193
0.0001211930285
0.0001211876923
0.0001211798131
0.0001211695659
0.0001211571059
0.0001211425983
0.0001211261667
0.0001211079434
0.0001210880578
0.0001210666606
0.0001210438427
0.0001210194439
0.0001209905839
0.0001209604729
0.0001209272983
0.0001208910679
0.0001208543581
0.0001208204007
0.0001207857009
0.0001207464181
0.0001207060841
0.0001206617743
0.0001206158939
0.0001205727665
0.0001205307696
0.0001204855341
0.0001204384402
0.000120391225
0.0001203439343
0.0001202966398
0.0001202493793
0.0001201993011
0.0001201475712
0.0001200988937
0.0001200522442
0.0001200031197
0.0001199523794
0.0001199044695
0.0001198589643
0.0001198116468
0.0001197623665
0.0001197151733
0.0001196711363
0.0001196274811
0.0001195842397
0.0001195410739
0.0001194943924
0.0001194481311
0.0001194059058
0.0001211839127
0.0001211814013
0.0001211760212
0.0001211680775
0.0001211577467
0.0001211452012
0.000121130577
0.0001211140128
0.000121095643
0.000121075616
0.0001210540484
0.0001210310498
0.0001210046492
0.0001209755625
0.000120945216
0.0001209099032
0.0001208733915
0.0001208383958
0.000120804178
0.0001207675986
0.00012072761
0.0001206859283
0.000120640241
0.0001205947596
0.0001205527874
0.0001205099084
0.0001204627032
0.0001204152861
0.00012036777
0.0001203201725
0.0001202725974
0.000120224419
0.0001201722736
0.0001201209255
0.0001200738582
0.0001200263937
0.0001199751779
0.0001199247398
0.0001198788084
0.0001198329926
0.0001197832727
0.000119733955
0.0001196893765
0.0001196453718
0.0001196018098
0.0001195586614
0.0001195130965
0.0001194665726
0.0001194224297
0.0001193809955
0.0001211724337
0.0001211698972
0.0001211644636
0.0001211564409
0.0001211460223
0.0001211333543
0.0001211185853
0.0001211018571
0.0001210833137
0.0001210630981
0.0001210413171
0.0001210175908
0.0001209896068
0.0001209602304
0.0001209277002
0.0001208920014
0.0001208555404
0.0001208218228
0.0001207872562
0.0001207482009
0.0001207077985
0.0001206634899
0.0001206173222
0.0001205737077
0.0001205312895
0.0001204855648
0.0001204378543
0.0001203899615
0.0001203419388
0.0001202938708
0.0001202457988
0.0001201944488
0.0001201417817
0.0001200927797
0.0001200452785
0.0001199945486
0.0001199429172
0.0001198951041
0.0001198488704
0.000119799815
0.0001197498594
0.0001197032714
0.0001196587602
0.0001196147201
0.0001195711553
0.0001195264214
0.0001194795452
0.0001194339333
0.0001193922699
0.0001193510397
0.0001211610706
0.0001211585038
0.0001211530104
0.0001211449039
0.0001211343615
0.0001211215429
0.000121106598
0.00012108967
0.0001210709219
0.000121050463
0.0001210284187
0.0001210025703
0.0001209742426
0.0001209444456
0.000120909618
0.000120873466
0.0001208386488
0.0001208044914
0.0001207678826
0.0001207276974
0.0001206856708
0.0001206395
0.0001205935482
0.0001205509272
0.000120507018
0.0001204588853
0.0001204104546
0.0001203618368
0.0001203130727
0.00012026426
0.0001202138446
0.0001201602376
0.0001201086411
0.0001200602061
0.0001200098946
0.0001199571953
0.0001199070964
0.0001198598988
0.0001198108957
0.0001197599401
0.0001197115597
0.0001196662379
0.000119621443
0.0001195772033
0.0001195324116
0.0001194849695
0.0001194384273
0.0001193964172
0.0001193549215
0.0001193105375
0.000121141654
0.000121133434
0.0001211227437
0.0001211097447
0.0001210945886
0.0001210774364
0.000121058421
0.0001210376671
0.0001210144125
0.0001209872279
0.0001209584765
0.0001209262453
0.0001208908789
0.0001208546833
0.0001208209566
0.0001207862367
0.0001207467278
0.000120705845
0.0001206606286
0.0001206136085
0.0001205694649
0.0001205260126
0.0001204784256
0.0001204292953
0.00012037987
0.0001203301871
0.0001202803685
0.0001202303372
0.0001201754373
0.0001201211945
0.0001200714445
0.0001200207372
0.0001199664897
0.0001199141036
0.0001198654624
0.0001198154287
0.0001197629195
0.0001197128957
0.0001196662648
0.0001196202401
0.0001195748654
0.0001195287158
0.0001194802818
0.0001194334037
0.0001193907643
0.0001193487806
0.0001193034054
0.0001192586322
)
;

boundaryField
{
    front_top
    {
        type            wedge;
    }
    front_middle
    {
        type            wedge;
    }
    front_bottom
    {
        type            wedge;
    }
    back_top
    {
        type            wedge;
    }
    back_middle
    {
        type            wedge;
    }
    back_bottom
    {
        type            wedge;
    }
    axis_top
    {
        type            symmetryPlane;
    }
    axis_middle
    {
        type            symmetryPlane;
    }
    axis_bottom
    {
        type            symmetryPlane;
    }
    wall_top
    {
        type            calculated;
        value           nonuniform List<scalar> 
23
(
0.0001196768107
0.0001196608694
0.0001196451852
0.0001196297537
0.0001196145598
0.0001195995772
0.0001195847852
0.0001195701582
0.0001195556638
0.0001195409424
0.0001195251515
0.0001195093168
0.0001194933262
0.0001194770248
0.0001194601965
0.0001194425392
0.0001194252764
0.0001194064276
0.0001193851339
0.0001193603212
0.0001193287372
0.0001192881013
0.0001192364074
)
;
    }
    wall_middle
    {
        type            calculated;
        value           nonuniform 0();
    }
    wall_bottom
    {
        type            calculated;
        value           nonuniform 0();
    }
    inlet
    {
        type            calculated;
        value           nonuniform 0();
    }
    outlet
    {
        type            calculated;
        value           nonuniform 0();
    }
    procBoundary6to5
    {
        type            processor;
        value           nonuniform List<scalar> 
51
(
0.0001211498205
0.0001211472214
0.0001211472214
0.000121130369
0.0001211220149
0.0001211111496
0.0001210979368
0.0001210825389
0.0001210651084
0.0001210457723
0.0001210246641
0.0001209991537
0.0001209714901
0.0001209418874
0.0001209073826
0.0001208713514
0.0001208367025
0.000120802307
0.0001207649757
0.0001207241514
0.0001206808293
0.0001206335512
0.000120587027
0.0001205430624
0.0001204966167
0.0001204466204
0.0001203961637
0.0001203453296
0.0001202942049
0.0001202428517
0.0001201873765
0.000120130666
0.0001200788504
0.0001200268143
0.000119970412
0.0001199156363
0.0001198649119
0.0001198124981
0.0001197576516
0.0001197060059
0.0001196573114
0.000119609308
0.0001195620467
0.0001195127
0.0001194625126
0.0001194158659
0.000119372026
0.0001193271781
0.0001192809119
0.0001192355843
0.000119191182
)
;
    }
    procBoundary6to7
    {
        type            processor;
        value           nonuniform List<scalar> 
51
(
0.0001214044691
0.0001214030186
0.00012139991
0.0001213953186
0.0001213893454
0.0001213820791
0.000121372216
0.0001213602915
0.0001213470578
0.000121332605
0.0001213170388
0.0001213004268
0.0001212828449
0.0001212609465
0.0001212379014
0.0001212123388
0.0001211835492
0.0001211538914
0.0001211234828
0.0001210774309
0.0001210774309
0.0001210458143
0.0001210125096
0.0001209752657
0.0001209366108
0.0001208937635
0.0001208514322
0.0001208126754
0.0001207725929
0.0001207285728
0.0001206830522
0.0001206339088
0.0001205863614
0.0001205420591
0.0001204958056
0.0001204467439
0.0001203978098
0.0001203490449
0.0001203004845
0.0001202521582
0.0001202013758
0.0001201488433
0.0001200994645
0.0001200523619
0.000120002883
0.0001199518974
0.000119903911
0.00011985838
0.0001198110758
0.000119761962
0.0001197150424
)
;
    }
}


// ************************************************************************* //
