/*--------------------------------*- C++ -*----------------------------------*\
  =========                 |
  \\      /  F ield         | OpenFOAM: The Open Source CFD Toolbox
   \\    /   O peration     | Website:  https://openfoam.org
    \\  /    A nd           | Version:  7
     \\/     M anipulation  |
\*---------------------------------------------------------------------------*/
FoamFile
{
    version     2.0;
    format      ascii;
    class       volScalarField;
    location    "0.0015";
    object      generalizedNewtonian:nu;
}
// * * * * * * * * * * * * * * * * * * * * * * * * * * * * * * * * * * * * * //

dimensions      [0 2 -1 0 0 0 0];

internalField   nonuniform List<scalar> 
1167
(
412.9166371
411.5923154
409.3882924
405.5585638
400.7824923
395.0945744
388.5931089
381.3961297
373.6157176
365.3632935
356.7304032
347.7992757
338.6578233
329.3729363
320.0007852
310.6092636
301.2310072
291.9149842
282.6900579
384.4229279
383.1466589
381.2905629
377.777918
373.450937
368.2961516
362.4063144
355.8902001
348.8533812
341.3899205
333.5787009
325.5008755
317.2345992
308.8313665
300.3525794
291.8438923
283.3419909
274.8920064
266.5115922
258.2370207
250.0790651
242.0627953
234.1953522
226.4929945
218.9593948
211.6056002
204.4327205
197.4479796
190.6493232
184.0421218
177.6217809
171.3922812
165.3476172
159.4911426
153.8150773
148.3223557
143.0050125
137.866286
132.8979863
128.1036233
123.4754765
119.0176815
114.7234634
110.5965555
106.6310704
102.8299877
99.18809829
95.71151895
92.40430273
89.20372879
355.9220569
354.6901832
353.1600422
349.945275
346.0388515
341.3951708
336.0909241
330.2281822
323.9013078
317.1872267
310.1610617
302.9041167
295.4701485
287.9124638
280.2888416
272.6297742
264.9778158
257.3597623
249.8014029
242.3273492
234.9494633
227.6899856
220.55158
213.5532565
206.6923164
199.9850487
193.4263269
187.0285481
180.7851531
174.7058648
168.7836783
163.0255176
157.4252914
151.9875003
146.7064606
141.5851361
136.6191393
131.810507
127.1557424
122.6564971
118.3102099
114.1186493
110.0795241
106.1944016
102.4609057
98.87998388
95.44839318
92.17182638
89.05581513
86.03017543
327.7538731
326.5679049
325.333864
322.403447
318.897882
314.7371318
309.9860956
304.7396881
299.0755587
293.0664194
286.7868852
280.2989189
273.6517887
266.9001773
260.082793
253.2328638
246.3889005
239.5673625
232.7985211
226.0935408
219.4721178
212.9433342
206.5185622
200.204767
194.0084399
187.9351453
181.9884005
176.1715342
170.4865575
164.9351434
159.5184802
154.2371009
149.092293
144.0831936
139.2111409
134.4749135
129.8765809
125.4146197
121.0913812
116.9053924
112.8594205
108.9522144
105.185894
101.559143
98.07340774
94.72657486
91.51857222
88.45264186
85.53792782
82.69614236
300.2465348
299.1135309
298.14624
295.4868663
292.3550984
288.6437269
284.4077846
279.7287163
274.6793347
269.3287141
263.7432879
257.9711383
252.0614211
246.0619178
240.0015945
233.9171003
227.8319719
221.7673925
215.7456345
209.7748812
203.8760653
198.0500374
192.3129481
186.6632467
181.1131338
175.6604626
170.3142869
165.0713254
159.93944
154.9144157
150.0032508
145.2016625
140.5164515
135.9427006
131.4872166
127.1454413
122.9245564
118.8203605
114.8395066
110.9785205
107.243692
103.6318221
100.1481289
96.78910028
93.55920311
90.4536493
87.47520077
84.62496267
81.91535626
79.26211609
273.7034277
272.6282929
271.8911555
269.4832969
266.6952234
263.3960896
259.6288668
255.4703508
250.9868119
246.2460103
241.2964529
236.1840464
230.9587276
225.6526739
220.2962546
214.9220781
209.5453817
204.1907513
198.8688884
193.5941267
188.3758564
183.2205476
178.1363608
173.1249988
168.1939891
163.3425439
158.5767708
153.8947226
149.3018154
144.7957878
140.3813444
136.0570168
131.8267632
127.6896795
123.6494864
119.7063949
115.8639691
112.1230464
108.4870096
104.9569847
101.5361449
98.22513196
95.02638484
91.93980634
88.96706664
86.1061124
83.35773705
80.72502292
78.22056706
75.7575597
248.3640109
247.3489286
246.8037061
244.6293283
242.1515521
239.2243906
235.8832748
232.1986365
228.2361907
224.0466437
219.6757798
215.1693425
210.5666033
205.895364
201.1877847
196.4643818
191.7429337
187.0428059
182.37031
177.7424101
173.1599508
168.6334231
164.1631081
159.7554849
155.4106333
151.1324824
146.920487
142.7776342
138.7032057
134.6998699
130.767249
126.9084944
123.1231725
119.414915
115.7838609
112.234489
108.7672245
105.3868577
102.0939189
98.89325552
95.78531733
92.773957
89.85910984
87.04362594
84.3268217
81.70928327
79.18950228
76.77338929
74.4719988
72.19912895
224.4062468
223.4549707
223.0659781
221.1047305
218.9073788
216.316281
213.360031
210.107301
206.6119879
202.9192676
199.0716403
195.1134071
191.0728668
186.9783651
182.8577702
178.7257456
174.6025539
170.4982857
166.4232602
162.3864744
158.3905993
154.4432906
150.5425742
146.6957726
142.8985133
139.1572989
135.4667174
131.8329475
128.2506459
124.7258462
121.2542718
117.842092
114.4858766
111.1918905
107.9582578
104.7915084
101.6907343
98.66239528
95.70606616
92.82800253
90.02767586
87.31035277
84.67483087
82.12567185
79.66057384
77.2822438
74.98729981
72.78413032
70.68223903
68.59664019
201.9585839
201.0734663
200.8103399
199.0464946
197.1020035
194.8124489
192.2038039
189.3365039
186.2578347
183.0093182
179.6335949
176.1634686
172.6259053
169.0500373
165.4542331
161.8544687
158.2677999
154.7001879
151.1642745
147.6619475
144.1993591
140.7777082
137.3989292
134.0639599
130.7722842
127.5244859
124.3190669
121.1568403
118.0361869
114.9584504
111.9229048
108.9313581
105.9839823
103.083375
100.2310022
97.43011493
94.68295406
91.99304552
89.36296947
86.79626659
84.29503544
81.86218043
79.49899033
77.20782046
74.98861832
72.84216657
70.76688689
68.7707055
66.86345521
64.96088126
181.1101892
180.2928227
180.1289509
178.5460775
176.8272993
174.8080478
172.5081527
169.9821151
167.2732445
164.4214802
161.4630446
158.4255485
155.3359162
152.2183808
149.0877741
145.9617407
142.8502152
139.7614505
136.7039065
133.6784194
130.6920675
127.7416811
124.8317696
121.9585664
119.1242054
116.3248679
113.5618503
110.831697
108.1355877
105.4710464
102.8399336
100.2405601
97.67566145
95.14479441
92.6518542
90.19730678
87.78572813
85.41809434
83.09925662
80.8303798
78.61562612
76.45579884
74.35419551
72.31124727
70.32889129
68.40613286
66.54329531
64.74693849
63.02844708
61.30326768
161.9060012
161.1559329
161.0673464
159.6486492
158.1318006
156.3511294
154.3233807
152.0988933
149.7174742
147.2165513
144.6246146
141.9676332
139.2727229
136.556836
133.8354216
131.1240818
128.4293435
125.7614263
123.1235121
120.5194405
117.9512821
115.4184926
112.9225364
110.4602443
108.032518
105.6348864
103.2684608
100.9284388
98.61633746
96.3281931
94.06618893
91.82732697
89.61466349
87.42671942
85.26752426
83.13674125
81.03900762
78.97467108
76.94869148
74.96152922
73.01769486
71.11718014
69.26406843
67.45758334
65.70105351
63.99203007
62.3324171
60.72749782
59.18982184
57.63596906
144.3476288
143.6628569
143.6301408
142.3612435
141.0215555
139.4507849
137.6630483
135.7044153
133.6129823
131.4181428
129.1465853
126.8239853
124.4717902
122.1053365
119.7409371
117.3887863
115.0566694
112.7530365
110.4792367
108.240864
106.0363176
103.8675222
101.7324201
99.63034797
97.55880968
95.51588628
93.49920802
91.506459
89.53590671
87.5857876
85.65512299
83.74299382
81.84957266
79.97523921
78.12127698
76.28906851
74.48068611
72.69815455
70.94403769
69.2203023
67.529364
65.87274395
64.2526251
62.66972934
61.12563304
59.61929166
58.15183884
56.72884794
55.36266251
53.97291891
128.4032026
127.7816327
127.7883395
126.6537288
125.4708278
124.0851225
122.5087659
120.7852855
118.9464058
117.0185822
115.0263509
112.994336
110.9388177
108.8751603
106.8180433
104.7750456
102.7554941
100.76398
98.80383745
96.87823593
94.98611822
93.12962366
91.3050564
89.5134112
87.74984944
86.01436204
84.30213048
82.61268946
80.94191687
79.28965644
77.65253717
76.03112458
74.42329382
72.83071517
71.25240255
69.69091473
68.14613841
66.62124162
65.11670041
63.63553989
62.17831431
60.74765447
59.34404393
57.9693963
56.62377385
55.30741046
54.02017438
52.76870177
51.56352926
50.32996922
114.0133755
113.4517797
113.486013
112.4729764
111.4287394
110.2059768
108.8162639
107.2981306
105.67925
103.9837553
102.2355168
100.4536744
98.65378595
96.85138206
95.05694407
93.27862903
91.52518987
89.79927945
88.10586184
86.44546825
84.81929332
83.22698825
81.6670515
80.13837149
78.63783303
77.16407538
75.71316191
74.2838323
72.87228328
71.47767885
70.09668835
68.72925401
67.37310182
66.02917378
64.69620071
63.37598595
62.06805227
60.77489709
59.49644405
58.23530394
56.99134804
55.76721024
54.56238815
53.37936838
52.21702036
51.07653813
49.95668698
48.86483268
47.80972547
46.72308812
101.1015093
100.5963551
100.6489237
99.74551459
98.82356327
97.74459268
96.51852978
95.17931396
93.75205484
92.25920571
90.72171671
89.15570966
87.57622281
85.99704361
84.42670569
82.87436094
81.34580879
79.84485577
78.37575598
76.93840265
75.53542226
74.16473129
72.82665256
71.51843471
70.23890309
68.98497057
67.75461552
66.54487125
65.35359958
64.17815522
63.0166975
61.86734532
60.72905156
59.60083619
58.4824454
57.37371865
56.27508043
55.18706559
54.11034221
53.04570282
51.99378954
50.95554709
49.93127743
48.92187073
47.9270406
46.9471104
45.98112628
45.03603835
44.1192919
43.16936334
89.57625491
89.12354048
89.18734786
88.38230016
87.56857133
86.61593614
85.53272254
84.34987846
83.08981009
81.77362499
80.41795061
79.03794162
77.64832374
76.25951916
74.88014507
73.51912793
72.1804045
70.86907645
69.5874485
68.33707267
67.11922311
65.93286966
64.77830057
63.65274551
62.55597916
61.48414249
60.43664861
59.40944252
58.40172028
57.4096403
56.4325506
55.46727505
54.51371771
53.56944827
52.63496628
51.70855293
50.79125732
49.88198153
48.98188967
48.09021216
47.20809932
46.33500002
45.47177579
44.61794326
43.77392711
42.93894302
42.11279919
41.30102735
40.51083186
39.68654781
79.33600857
78.93146558
79.00140093
78.28492057
77.5663613
76.72423576
75.76634664
74.72044045
73.60723316
72.44388474
71.24560536
70.02663779
68.79961272
67.57353609
66.35744238
65.1578395
63.97921703
62.82666696
61.70145148
60.60641625
59.5415142
58.50732335
57.502989
56.52752103
55.57951209
54.65692384
53.7580817
52.8805089
52.02244882
51.1812994
50.35554673
49.54292997
48.74240718
47.952173
47.17170004
46.39964544
45.63601044
44.87974877
44.13110448
43.38912528
42.65429186
41.92557734
41.20356438
40.48700762
39.77664629
39.07077134
38.36976563
37.67780891
37.00170299
36.2920264
70.27418324
69.91371028
69.98649007
69.34871486
68.7138447
67.96903327
67.12135588
66.19599153
65.2108425
64.18054341
63.11891406
62.03950024
60.95214435
59.86557638
58.78850698
57.72574639
56.68265008
55.66269721
54.66812579
53.70138575
52.76239789
51.85267971
50.97068221
50.11680321
49.28889505
48.48641462
47.70698435
46.9495433
46.2115813
45.49183336
44.78796925
44.09887588
43.4225387
42.75809625
42.10389163
41.45935258
40.82320048
40.19494537
39.57350631
38.95841233
38.34879253
37.74407116
37.14349754
36.54634811
35.95219063
35.35981316
34.76897482
34.18336377
33.60868819
33.0024763
62.28301201
61.96235986
62.03536412
61.46804907
60.90718712
60.2482493
59.49783258
58.67860322
57.8052491
56.8910941
55.94900435
54.99013199
54.02335395
53.05731303
52.09863275
51.15225526
50.22363547
49.31504422
48.42968567
47.56891859
46.73392297
45.92526166
45.14269234
44.38619294
43.65449905
42.9471678
42.26238361
41.59941209
40.95610537
40.33162399
39.72382988
39.13196927
38.55402056
37.9893739
37.43615402
36.89394848
36.36098286
35.83686925
35.31980293
34.80948882
34.30406618
33.80326767
33.3052112
32.80957979
32.31493022
31.82053789
31.32530794
30.83293552
30.34716545
29.83346992
55.25661644
54.97189425
55.04373648
54.53942697
54.04405931
53.46104604
52.79689017
52.07059598
51.29539897
50.48310952
49.64550762
48.79148554
47.92940142
47.06731873
46.21038752
45.36399541
44.53215404
43.71763397
42.92354215
42.15077228
41.40132747
40.67508436
39.97292619
39.29421108
38.63895289
38.00617675
37.39537135
36.80528729
36.23509218
35.68345261
35.14946462
34.63180367
34.1295622
33.64144596
33.16656474
32.70367583
32.25177804
31.80954854
31.37582822
30.9492696
30.5285277
30.11223177
29.69888038
29.28739082
28.87634308
28.46471939
28.05119263
27.63905528
27.23037998
26.79826048
49.09384627
48.84137598
48.91128811
48.46319433
48.02584677
47.51041309
46.92198606
46.27764696
45.58894384
44.86670724
44.12031293
43.35797121
42.58759717
41.81541679
41.04645199
40.28601937
39.53694755
38.80262836
38.08515319
37.38621066
36.70718939
36.04857281
35.41122218
34.7947651
34.19964399
33.62500635
33.07096861
32.53635852
32.02107201
31.52385263
31.04449625
30.58171846
30.13523143
29.70371575
29.28680943
28.88309306
28.4919713
28.1117897
27.74174778
27.37992341
27.02533537
26.67579957
26.33026761
25.98676496
25.64430383
25.3010551
24.95625936
24.61178143
24.26921177
23.90785909
43.69923616
43.47557225
43.54318031
43.14522208
42.75959424
42.30361544
41.78216572
41.21030737
40.59826533
39.95527121
39.28920233
38.6075701
37.91743892
37.22382887
36.53186422
35.84555562
35.16790967
34.50219488
33.84987624
33.21319797
32.59285695
31.99015571
31.40532644
30.83897428
30.29101476
29.76164276
29.25050606
28.7575524
28.2822901
27.82459652
27.38389466
26.96001915
26.5522933
26.16049565
25.78381493
25.4218095
25.07337144
24.73773494
24.41346516
24.09939527
23.79374602
23.49499234
23.20132366
22.91117071
22.62293993
22.33500226
22.04635455
21.75817054
21.4712347
21.17071513
38.98408615
38.78605495
38.85134992
38.4982459
38.15809932
37.7547677
37.29271615
36.78515949
36.24120344
35.66812388
35.073072
34.4629859
33.84332326
33.21882964
32.59436083
31.97285113
31.35764454
30.75103326
30.15496685
29.57112752
29.000481
28.44424543
27.90271546
27.37673841
26.86625958
26.37183567
25.89321431
25.43075494
24.98419914
24.55379461
24.13932728
23.74093361
23.3584168
22.99178937
22.64075768
22.30502643
21.98402753
21.67706488
21.38314653
21.10106955
20.82933532
20.56639405
20.31048065
20.0599913
19.81312467
19.56841123
19.3244401
19.08225018
18.84115086
18.59252583
34.7549593
34.44150189
34.14168053
33.78508649
33.37580604
32.92565099
32.441825
31.93078845
31.39893565
30.85213154
30.29492854
29.73194051
29.16681067
28.60250524
28.04208849
27.48723433
26.94020883
26.40199074
25.87409645
25.35708299
24.85193218
24.35891995
23.87874217
23.41144427
22.9576027
22.51715662
22.09072739
21.67820843
21.28028792
20.89688048
20.52861458
20.17547969
19.83787108
19.51565601
19.2088723
18.91706712
18.63972871
18.37587262
18.12442117
17.8839329
17.65292999
17.42968243
17.21262568
16.99994367
16.79064111
16.58464398
16.3810131
16.17554123
)
;

boundaryField
{
    front_top
    {
        type            wedge;
    }
    front_middle
    {
        type            wedge;
    }
    front_bottom
    {
        type            wedge;
    }
    back_top
    {
        type            wedge;
    }
    back_middle
    {
        type            wedge;
    }
    back_bottom
    {
        type            wedge;
    }
    axis_top
    {
        type            symmetryPlane;
    }
    axis_middle
    {
        type            symmetryPlane;
    }
    axis_bottom
    {
        type            symmetryPlane;
    }
    wall_top
    {
        type            calculated;
        value           nonuniform List<scalar> 
23
(
87.6148375
84.52352812
81.27672116
77.93287419
74.51966858
71.05133631
67.5378813
63.98966671
60.41773477
56.83393874
53.2520232
49.68628679
46.1525232
42.667558
39.24883719
35.91353224
32.67844301
29.55845381
26.56695834
23.71518726
21.01206342
18.46315121
16.07123486
)
;
    }
    wall_middle
    {
        type            calculated;
        value           nonuniform 0();
    }
    wall_bottom
    {
        type            calculated;
        value           nonuniform 0();
    }
    inlet
    {
        type            calculated;
        value           nonuniform 0();
    }
    outlet
    {
        type            calculated;
        value           nonuniform 0();
    }
    procBoundary6to5
    {
        type            processor;
        value           nonuniform List<scalar> 
51
(
34.86719299
34.69197057
34.69197057
31.18041825
30.90220387
30.63817058
30.32310119
29.96088068
29.56159653
29.13122358
28.67542821
28.19999523
27.70940795
27.20790334
26.69962922
26.18734637
25.67413916
25.16215304
24.65337067
24.14940378
23.65144349
23.16066735
22.67774461
22.20350687
21.73839257
21.28295724
20.83755061
20.40256836
19.97846077
19.56555653
19.16448455
18.77553301
18.39956038
18.03686611
17.68830795
17.35421582
17.03522756
16.73158186
16.44346291
16.17073166
15.9129897
15.66960772
15.43956218
15.22170392
15.01453545
14.81654409
14.62610411
14.44204523
14.2639514
14.08974206
13.91997819
)
;
    }
    procBoundary6to7
    {
        type            processor;
        value           nonuniform List<scalar> 
51
(
441.0456968
439.6678099
437.1057508
432.9408055
427.6984044
421.4481189
414.312217
406.4135292
397.8703814
388.7989214
379.3168197
369.5086805
359.4616164
349.2699507
338.9874454
328.6830195
318.4084706
308.2025274
298.1162238
273.5868159
273.5868159
264.6303598
255.836568
247.2266549
238.8063702
230.5920391
222.58388
214.7939749
207.2196933
199.8680262
192.7348124
185.8232258
179.1284174
172.6504427
166.384833
160.328731
154.4778369
148.828052
143.375782
138.116098
133.0460153
128.1606106
123.4580115
118.9341139
114.5873492
110.4144177
106.4139553
102.5836326
98.92495032
95.44309438
92.08423979
)
;
    }
}


// ************************************************************************* //
