/*--------------------------------*- C++ -*----------------------------------*\
  =========                 |
  \\      /  F ield         | OpenFOAM: The Open Source CFD Toolbox
   \\    /   O peration     | Website:  https://openfoam.org
    \\  /    A nd           | Version:  7
     \\/     M anipulation  |
\*---------------------------------------------------------------------------*/
FoamFile
{
    version     2.0;
    format      ascii;
    class       volScalarField;
    location    "0.0015";
    object      rho;
}
// * * * * * * * * * * * * * * * * * * * * * * * * * * * * * * * * * * * * * //

dimensions      [1 -3 0 0 0 0 0];

internalField   nonuniform List<scalar> 
1167
(
953.7646806
953.7395094
953.6855653
953.6058909
953.5022355
953.3763146
953.229449
953.0629943
952.8782644
952.6767051
952.4594554
952.2275682
951.9823631
951.7248381
951.4558417
951.1767078
950.8879816
950.5907644
950.2858042
953.6045674
953.5794706
953.5256862
953.4463147
953.3431221
953.21759
953.071157
952.9051929
952.7211321
952.5202665
952.3036591
952.0725411
951.8282109
951.5714462
951.3034477
951.025148
950.7373175
950.4411474
950.1370907
949.8262952
949.5091979
949.1867433
948.8594058
948.5279488
948.1928384
947.8547419
947.5140875
947.171468
946.8272218
946.4819224
946.1358073
945.7894349
945.4429614
945.0969493
944.7514394
944.4069928
944.0635743
943.7217573
943.381427
943.0431509
942.7067453
942.3727782
942.0410374
941.7120379
941.3855513
941.0620591
940.7413529
940.42385
940.1093554
939.7981785
953.4474584
953.4224705
953.3689195
953.2898252
953.1869237
953.0617458
952.9157265
952.7503146
952.566912
952.3666166
952.1506253
951.9203951
951.6767591
951.4207632
951.1537022
950.8761948
950.5893957
950.2940742
949.991032
949.6811995
949.3650877
949.0437023
948.7173407
948.3870124
948.0528883
947.7159597
947.3763227
947.0348781
946.6916767
946.3475483
946.0025065
945.6572855
945.3119199
944.9670325
944.6226482
944.2792932
943.9370166
943.5962619
943.2570771
942.9198309
942.5845624
942.2516052
941.9209764
941.5929644
941.2675528
940.9450414
940.6253635
940.3088394
939.9952978
939.6851056
953.2933862
953.2684652
953.2150575
953.1361751
953.0335497
952.908708
952.7631461
952.5983321
952.4154255
952.2156735
952.0004613
951.7708912
951.527919
951.2728312
951.0064991
950.7298068
950.4439495
950.1494452
949.8474492
949.5384832
949.2234582
948.9029765
948.5777255
948.2483304
947.9153445
947.5793829
947.2409014
946.9004421
946.558414
946.215282
945.8714171
945.5272083
945.1830254
944.8391509
944.4959404
944.1535984
943.8124901
943.4727434
943.134714
942.798461
942.4643327
942.1323586
941.8028447
941.4757923
941.1514719
940.8299015
940.5112926
940.1956784
939.8831642
939.573856
953.1421076
953.1172493
953.0639762
952.9852928
952.8829268
952.7584726
952.6134225
952.4490288
952.2665905
952.0674426
951.8529168
951.623939
951.3816894
951.1273772
950.8617393
950.5859765
950.300874
950.0072699
949.7061662
949.3980546
949.0840592
948.7644499
948.440276
948.1117859
947.7799092
947.4448893
947.107536
946.7680388
946.4271595
946.0850042
945.742296
945.3990827
945.0560638
944.7131876
944.371135
944.0297941
943.6898396
943.3511029
943.0142028
942.6789524
942.3459341
942.0149487
941.6865231
941.3604226
941.0371806
940.7165412
940.3989885
940.0842732
939.7727726
939.4643358
952.9935534
952.9687531
952.9156047
952.8371061
952.7350854
952.6110305
952.4663244
952.3023226
952.1203325
951.9218729
951.7078644
951.4794424
951.2379872
950.9842979
950.7193851
950.4444409
950.1600553
949.8673947
949.5670632
949.259943
948.9467647
948.6281415
948.3048609
947.9773617
947.6464501
947.3124424
946.9760908
946.6376351
946.2977759
945.9566903
945.6150089
945.2729005
944.9309001
944.5891482
944.2481003
943.9079025
943.5689373
943.2313372
942.895417
942.561292
942.2292473
941.8993659
941.5718932
941.2468744
940.9245675
940.604964
940.2883404
939.9745828
939.664017
939.3564553
952.8476539
952.8229065
952.7699267
952.6917077
952.5899473
952.4661611
952.3217703
952.1581284
951.9767569
951.7787367
951.5652061
951.337454
951.0965908
950.8434815
950.5793799
950.3050795
950.0214654
949.7296064
949.4300062
949.1238338
948.811434
948.4937945
948.1713344
947.8448604
947.514816
947.1818642
946.8464114
946.5090431
946.170108
945.8301277
945.4893993
945.1484145
944.8073799
944.4667549
944.1266837
943.7876174
943.4496331
943.1131599
942.7782132
942.4452061
942.1141298
941.7853453
941.4588204
941.1348766
940.8134993
940.4949479
940.1792213
939.8664718
939.5567732
939.2501831
952.7044868
952.6798215
952.626963
952.5488937
952.4473293
952.3237833
952.1796751
952.0165236
951.8355578
951.6379343
951.4248685
951.1977486
950.9573836
950.7048957
950.4414637
950.1677586
949.8849639
949.593761
949.2950114
948.9895721
948.6779876
948.3612076
948.0395598
947.7140435
947.3848357
947.0529025
946.7183194
946.3820098
946.0439753
945.705078
945.3652904
945.0254044
944.6853398
944.3458099
944.006735
943.6687608
943.3317875
942.9963959
942.6624584
942.3305252
942.0004462
941.6727214
941.3471594
941.0242692
940.7038183
940.3863131
940.0714789
939.7597303
939.4508918
939.1452629
952.5638848
952.5392595
952.4864875
952.4085469
952.3071512
952.1838126
952.040081
951.877287
951.6966345
951.4993586
951.2868685
951.0601594
950.8202379
950.5684191
950.3054945
950.0324105
949.7502957
949.4596946
949.1617634
948.8569818
948.5462619
948.2301923
947.9094619
947.5847148
947.2564693
946.9253513
946.5917705
946.2563216
945.919324
945.5813275
945.2426133
944.9036522
944.5646775
944.226096
943.8881281
943.5511178
943.2152579
942.8808326
942.5480075
942.2170429
941.8880623
941.5612911
941.2368094
940.9148574
940.5954573
940.2788675
939.965003
939.6541729
939.3462166
939.041513
952.4257194
952.4011264
952.3484242
952.2705877
952.1693293
952.0462826
951.9028352
951.7402705
951.5598781
951.363012
951.1509139
950.9245536
950.6851295
950.4337946
950.1713125
949.8988918
949.6172834
949.327341
949.0300426
948.7258738
948.415944
948.1005308
947.7806656
947.4566403
947.1293103
946.7989663
946.4663546
946.131727
945.7957392
945.4586146
945.1209498
944.7828945
944.4449931
944.1073477
943.7704761
943.434423
943.0996704
942.766209
942.434495
942.1044999
941.7766183
941.4508032
941.1274038
940.8063929
940.4880533
940.1723716
939.8595213
939.5495649
939.24258
938.9387034
952.2899157
952.2653459
952.2126942
952.1349335
952.0339167
951.9110568
951.7677569
951.6053648
951.4252018
951.2287173
951.0168674
950.7907831
950.5518528
950.3008527
950.0388092
949.7669008
949.4857231
949.1964279
948.8996233
948.5961578
948.2867856
947.9720875
947.652905
947.329619
947.0030738
946.6735092
946.3417652
946.0079635
945.6729058
945.3366653
944.9999778
944.6628522
944.3259586
943.9892862
943.6534479
943.3183979
942.9846924
942.6522463
942.3215916
941.9926097
941.6657877
941.3409591
941.0186226
940.6985586
940.381284
940.0665153
939.7546826
939.4456021
939.139588
938.836536
952.1563963
952.131839
952.0792881
952.0016867
951.9007374
951.777949
951.6347372
951.4724513
951.2926007
951.0962599
950.8845762
950.6588376
950.4201559
950.1694011
949.9078183
949.636217
949.3554604
949.0666394
948.7702412
948.467392
948.1584955
947.8444871
947.5258608
947.2033333
946.877416
946.5486837
946.2176356
945.8847284
945.5504396
945.2151573
944.8792962
944.5431757
944.2071612
943.8715394
943.536623
943.2026557
942.8698985
942.5385564
942.208872
941.8809977
941.5551464
941.2314197
940.9100483
940.5910703
940.2747358
939.9609726
939.6500824
939.3419158
939.0368433
938.7346167
952.0252348
952.0007146
951.9481709
951.8705721
951.7696287
951.6468515
951.5036583
951.3415499
951.1617728
950.9654841
950.7538904
950.5284057
950.2898367
950.0392925
949.7779886
949.5065857
949.2262418
948.9376843
948.6417152
948.3392472
948.0307686
947.7173115
947.399149
947.077291
946.751918
946.4239399
946.0935162
945.7614385
945.4278595
945.0934821
944.7584004
944.4232447
944.0880753
943.7534762
943.4194593
943.0865579
942.7547373
942.4244931
942.0957768
941.7690116
941.4441356
941.1215189
940.8011222
940.4832434
940.1678581
939.855152
939.5451775
939.2380221
938.9338121
938.6325054
951.8962316
951.8716966
951.8191227
951.7414811
951.640485
951.5176483
951.3744948
951.2124009
951.0325611
950.8362167
950.6247608
950.3992459
950.1606654
949.9103146
949.649048
949.3777614
949.0976465
948.8092207
948.5135944
948.2113332
947.9032801
947.5901225
947.2724556
946.9510031
946.6261856
946.2987408
945.9689427
945.6375136
945.3046479
944.971016
944.6367268
944.3023994
943.968102
943.6344054
943.3013266
942.9693869
942.6385512
942.3093223
941.981619
941.6559045
941.3320408
941.0105059
940.6910995
940.3743257
940.0599034
939.7482708
939.4392271
939.133099
938.8297645
938.5294212
951.7692543
951.7446878
951.6920476
951.6143102
951.513193
951.3902945
951.2470802
951.0848129
950.9047923
950.7083494
950.4968089
950.2711212
950.0324621
949.7820686
949.5206825
949.2494829
948.9693031
948.6809226
948.3854005
948.0831861
947.7754016
947.4623888
947.1450819
946.8238721
946.4995208
946.1724218
945.8431914
945.5122227
945.1800332
944.8469656
944.5134484
944.1797879
943.8463593
943.5134238
943.1812975
942.8501957
942.5203837
942.192063
941.8654328
941.5406697
941.2179134
940.8973609
940.5790807
940.2632895
939.9499408
939.6393063
939.3312567
939.0261328
938.7236932
938.4243333
951.6442107
951.6195929
951.5668444
951.4889495
951.3877154
951.2646698
951.1211822
950.9586151
950.7782741
950.5816761
950.369794
950.1437632
949.9049462
949.654226
949.3925584
949.1212209
948.8407777
948.5523399
948.2566206
947.9543978
947.6465375
947.3335396
947.0163261
946.6951908
946.3710929
946.0441569
945.7153209
945.3846435
945.0529715
944.7203158
944.3874313
944.0543058
943.7216285
943.389344
943.0580757
942.7277258
942.3988684
942.0713945
941.7457915
941.4219418
941.1002707
940.7806843
940.4635276
940.1487208
939.8364912
939.52684
939.2198894
938.9157149
938.6143077
938.315849
951.5210041
951.4963121
951.4434121
951.365398
951.2639273
951.1405278
950.9966352
950.8336195
950.6529574
950.4558613
950.2434462
950.0169728
949.7776804
949.5264106
949.2643815
948.9925151
948.7115981
948.4228194
948.1266495
947.8241946
947.515972
947.2028304
946.8853531
946.5641868
946.2399383
945.913085
945.5842367
945.253763
944.9222295
944.5899024
944.2573066
943.9246489
943.5924088
943.2607272
942.9300357
942.6004128
942.2722729
941.945632
941.6208686
941.2979325
940.9772168
940.658599
940.342495
940.0286627
939.7175523
939.4088948
939.1030699
938.7998731
938.4995579
938.2020201
951.3996006
951.3748428
951.3217982
951.2434703
951.1415955
951.0177101
950.8732588
950.7097035
950.5284571
950.3306384
950.1174636
949.890381
949.6502816
949.398214
949.1355214
948.8628342
948.5812836
948.2917107
947.9948632
947.6917637
947.3828532
947.0692288
946.7511475
946.4296122
946.1048702
945.7777675
945.4485642
945.1179831
944.7862386
944.4539509
944.1213054
943.7888527
943.4567324
943.1254242
942.7950201
942.4659416
942.1382641
941.812326
941.48818
941.1660965
940.8461452
940.5285143
940.2132857
939.900525
939.5903763
939.2828079
938.978031
938.6758795
938.3766704
938.0801075
951.2799277
951.2550383
951.2017141
951.1229758
951.020571
950.8960466
950.7508824
950.5866508
950.4045018
950.2057128
949.9916492
949.7635306
949.5223182
949.2692887
949.0054309
948.7315728
948.4490105
948.1582562
947.8604234
947.5561788
947.2463265
946.9316129
946.6126174
946.290125
945.9645289
945.6366171
945.3066702
944.9754341
944.6430792
944.3103026
943.9772146
943.6444617
943.3120866
942.980681
942.6502206
942.3212695
941.9937453
941.6681616
941.3443661
941.0228752
940.7034705
940.3866595
940.0721623
939.7603808
939.4511237
939.1446674
938.8408902
938.539933
938.2417699
937.9463685
951.1617704
951.1367143
951.0830351
951.0037752
950.9006954
950.775355
950.6294178
950.4641254
950.28081
950.0807735
949.8655304
949.6359962
949.3933329
949.1389253
948.8734896
948.5981981
948.313993
948.0216312
947.7222618
947.4163474
947.1050124
946.7886426
946.4682036
946.1440984
945.8171198
945.4876808
945.1564526
944.8237985
944.4902876
944.1562436
943.822172
943.488341
943.1551907
942.8229288
942.4919401
942.1624019
941.8346225
941.5087378
941.1849885
940.8635107
940.5444625
940.2279758
939.9140816
939.6029543
939.2945246
938.9890187
938.6862264
938.3864678
938.0894074
937.7953227
951.0450148
951.0197517
950.9656315
950.8857225
950.7818013
950.6556009
950.5084909
950.3418644
950.1570759
949.9556162
949.7386597
949.5073074
949.2629139
949.0065074
948.738996
948.461744
948.1753334
947.880907
947.5792426
947.2711469
946.9574867
946.6388307
946.3160899
945.9896423
945.6603961
945.3286234
944.9951833
944.6602464
944.3246099
943.9883985
943.6523452
943.316523
942.9815926
942.6475757
942.3150862
941.9841016
941.6551636
941.3281902
941.0037023
940.6815491
940.3622391
940.0455117
939.7318238
939.4209245
939.1131532
938.8083046
938.5065735
938.2078266
937.9120745
937.6193153
950.9295437
950.9040278
950.8493686
950.7686655
950.6638607
950.5364285
950.3878617
950.2195863
950.0330507
949.8296938
949.6105906
949.3769975
949.1303113
948.8713512
948.6013502
948.321316
948.0320546
947.734799
947.430059
947.1189967
946.8020895
946.4803228
946.154188
945.8245032
945.4917594
945.1566694
944.8196594
944.4813626
944.1421475
943.8026127
943.4630501
943.1240243
942.7857427
942.4487497
942.1131954
941.7795733
941.4479658
941.1188252
940.7922006
940.4684763
940.1476526
939.8299933
939.5155157
939.2043667
938.8965751
938.5921369
938.2911285
937.993354
937.6989759
937.4076585
950.8152374
950.789417
950.7341564
950.65261
950.5465606
950.4176129
950.2672763
950.0969916
949.9083965
949.7025931
949.4808402
949.2445884
948.9948723
948.7327076
948.4595067
948.1759171
947.8831376
947.5820053
947.273375
946.9581717
946.6370121
946.3108552
945.9801393
945.6458043
945.3082067
944.9682146
944.6261181
944.2826998
943.9382481
943.5934531
943.2486035
942.904285
942.5607966
942.2186455
941.8781345
941.5396681
941.2035461
940.8701124
940.5396383
940.2123925
939.8885508
939.5683464
939.2518643
938.9393052
938.6306026
938.3259595
938.0251072
937.7282797
937.4350864
937.1456922
950.6199186
950.5372301
950.4296927
950.2989303
950.1464692
949.9739291
949.7826458
949.5738738
949.3489802
949.1093408
948.8558906
948.5899374
948.3125103
948.0244986
947.7271633
947.421071
947.1074414
946.7867669
946.4601101
946.1279542
945.7912208
945.4503646
945.1062403
944.759202
944.4100799
944.0591376
943.7072374
943.3545352
943.0019132
942.6494754
942.2980347
941.9477719
941.5993625
941.253049
940.9094171
940.56875
940.2315263
939.89799
939.5685365
939.2433659
938.9227878
938.6068704
938.2958582
937.9896123
937.6883381
937.3916965
937.0998977
936.8124111
)
;

boundaryField
{
    front_top
    {
        type            wedge;
    }
    front_middle
    {
        type            wedge;
    }
    front_bottom
    {
        type            wedge;
    }
    back_top
    {
        type            wedge;
    }
    back_middle
    {
        type            wedge;
    }
    back_bottom
    {
        type            wedge;
    }
    axis_top
    {
        type            symmetryPlane;
    }
    axis_middle
    {
        type            symmetryPlane;
    }
    axis_bottom
    {
        type            symmetryPlane;
    }
    wall_top
    {
        type            calculated;
        value           nonuniform List<scalar> 
23
(
939.6430448
939.5304177
939.4196067
939.3105814
939.203234
939.0973802
938.9928728
938.8895311
938.7871259
938.6853819
938.5839829
938.4823027
938.3796215
938.2749444
938.1668842
938.0535001
937.9321879
937.7990098
937.648556
937.4732383
937.262552
937.001631
936.6697073
)
;
    }
    wall_middle
    {
        type            calculated;
        value           nonuniform 0();
    }
    wall_bottom
    {
        type            calculated;
        value           nonuniform 0();
    }
    inlet
    {
        type            calculated;
        value           nonuniform 0();
    }
    outlet
    {
        type            calculated;
        value           nonuniform 0();
    }
    procBoundary6to5
    {
        type            processor;
        value           nonuniform List<scalar> 
51
(
950.7020686
950.6759226
950.6759226
950.5063978
950.4223607
950.3130633
950.1801501
950.0252565
949.8499166
949.6554072
949.4430712
949.2144701
948.9706085
948.7126404
948.4419718
948.1593301
947.8659787
947.5627471
947.2505739
946.9303577
946.6028111
946.2688317
945.9289841
945.5841095
945.2347357
944.8815802
944.5251724
944.1660989
943.8049728
943.4422325
943.0785981
942.7143466
942.350351
941.9868028
941.6245538
941.2638769
940.905528
940.5499292
940.1976948
939.8493126
939.5052791
939.1661292
938.8322213
938.5040269
938.1817558
937.8656967
937.55594
937.2525407
936.9554679
936.664422
936.3793171
)
;
    }
    procBoundary6to7
    {
        type            processor;
        value           nonuniform List<scalar> 
51
(
953.9278027
953.9025539
953.8484435
953.7685234
953.6645484
953.538066
953.3906777
953.2237128
953.0384167
952.8360513
952.6180961
952.385497
952.1393197
951.8809892
951.61117
951.3309645
951.0413588
950.7430189
950.4371277
949.9738734
949.9738734
949.6558293
949.3322058
949.0038912
948.671249
948.3351392
947.9958368
947.6541563
947.3103216
946.9650389
946.6185141
946.2713585
945.9237637
945.57624
945.229007
944.882453
944.5368002
944.1923428
943.8493301
943.5079707
943.1685164
942.8311
942.4959728
942.1632338
941.8331022
941.5056428
941.181043
940.8593833
940.5407955
940.2253783
939.9131572
)
;
    }
}


// ************************************************************************* //
