/*--------------------------------*- C++ -*----------------------------------*\
  =========                 |
  \\      /  F ield         | OpenFOAM: The Open Source CFD Toolbox
   \\    /   O peration     | Website:  https://openfoam.org
    \\  /    A nd           | Version:  7
     \\/     M anipulation  |
\*---------------------------------------------------------------------------*/
FoamFile
{
    version     2.0;
    format      ascii;
    class       volVectorField;
    location    "0.0015";
    object      U;
}
// * * * * * * * * * * * * * * * * * * * * * * * * * * * * * * * * * * * * * //

dimensions      [0 1 -1 0 0 0 0];

internalField   nonuniform List<vector> 
1167
(
(-7.459761898e-08 5.257691737e-20 -0.002164389241)
(-1.938745481e-07 6.791343233e-20 -0.002164391928)
(-3.058216588e-07 -3.172745478e-20 -0.002164403913)
(-4.21120896e-07 1.647675788e-20 -0.002164420852)
(-5.344448842e-07 1.894247232e-19 -0.002164442091)
(-6.449236638e-07 1.236054107e-19 -0.002164466971)
(-7.523285053e-07 2.124364155e-19 -0.002164494794)
(-8.563288898e-07 2.341835066e-19 -0.002164524854)
(-9.566177075e-07 2.280563971e-19 -0.002164556407)
(-1.052925465e-06 3.365777295e-19 -0.002164588675)
(-1.144852831e-06 3.448989604e-19 -0.002164620989)
(-1.23198046e-06 3.758062726e-19 -0.00216465275)
(-1.314021773e-06 4.1220457e-19 -0.0021646833)
(-1.390570181e-06 3.772411372e-19 -0.002164712113)
(-1.461217638e-06 3.57147039e-19 -0.002164738747)
(-1.525659463e-06 3.356157055e-19 -0.002164762731)
(-1.583520193e-06 3.81471367e-19 -0.002164783778)
(-1.634532237e-06 3.663038112e-19 -0.002164801587)
(-1.678412112e-06 3.584095182e-19 -0.002164815965)
(-1.010359956e-07 1.065353216e-19 -0.002165095274)
(-2.625393724e-07 2.460920285e-19 -0.002165096869)
(-4.140252239e-07 4.431535793e-19 -0.002165107878)
(-5.698899565e-07 2.786234594e-19 -0.002165123079)
(-7.228189323e-07 3.181080101e-20 -0.002165141869)
(-8.715320057e-07 2.073820819e-19 -0.002165163613)
(-1.015699123e-06 2.953298553e-19 -0.002165187541)
(-1.154949132e-06 2.454340764e-19 -0.002165212819)
(-1.288904371e-06 2.630998365e-19 -0.002165238578)
(-1.417095426e-06 2.310398774e-19 -0.002165264027)
(-1.538983821e-06 2.753978069e-19 -0.002165288469)
(-1.654167009e-06 3.727246759e-19 -0.002165311164)
(-1.762206291e-06 3.672996348e-19 -0.002165331435)
(-1.862559695e-06 3.428756225e-19 -0.002165348777)
(-1.954840071e-06 3.521949486e-19 -0.002165362649)
(-2.038612483e-06 3.772608644e-19 -0.002165372634)
(-2.113461947e-06 3.413777101e-19 -0.002165378425)
(-2.179075831e-06 3.249834017e-19 -0.002165379722)
(-2.235122943e-06 2.994733867e-19 -0.002165376412)
(-2.28137247e-06 3.091165238e-19 -0.002165368364)
(-2.317605309e-06 3.49109578e-19 -0.002165355615)
(-2.343691267e-06 3.751929259e-19 -0.002165338213)
(-2.359531477e-06 3.961006563e-19 -0.002165316331)
(-2.365104571e-06 3.967398098e-19 -0.002165290175)
(-2.360440762e-06 3.973557461e-19 -0.002165260038)
(-2.34564519e-06 3.97715097e-19 -0.002165226251)
(-2.320881023e-06 4.070526094e-19 -0.002165189211)
(-2.286366788e-06 4.024714738e-19 -0.002165149342)
(-2.242381476e-06 4.203385923e-19 -0.00216510712)
(-2.189259135e-06 4.346157569e-19 -0.002165063025)
(-2.127389316e-06 4.491232966e-19 -0.002165017581)
(-2.057205614e-06 4.661269837e-19 -0.002164971289)
(-1.979199967e-06 4.694725878e-19 -0.002164924684)
(-1.893895505e-06 4.693677355e-19 -0.002164878257)
(-1.801858088e-06 4.713386696e-19 -0.002164832519)
(-1.703678628e-06 4.739650039e-19 -0.002164787917)
(-1.599988032e-06 4.758039287e-19 -0.002164744906)
(-1.491433434e-06 4.899675889e-19 -0.00216470386)
(-1.378685606e-06 5.049552912e-19 -0.002164665149)
(-1.262421911e-06 5.167739093e-19 -0.002164629055)
(-1.143332413e-06 5.067289814e-19 -0.002164595841)
(-1.022110265e-06 5.014673064e-19 -0.002164565675)
(-8.994471814e-07 4.99632319e-19 -0.002164538698)
(-7.760263943e-07 5.00892708e-19 -0.002164514953)
(-6.525196526e-07 5.030686221e-19 -0.002164494448)
(-5.295857843e-07 5.081829182e-19 -0.002164477095)
(-4.07847661e-07 5.046321059e-19 -0.002164462764)
(-2.879202584e-07 4.98161968e-19 -0.002164451233)
(-1.705295245e-07 5.053868032e-19 -0.002164442243)
(-5.661920143e-08 5.085375082e-19 -0.00216443542)
(-1.335813476e-07 1.08234727e-19 -0.002165903182)
(-3.470429193e-07 2.585725696e-19 -0.002165903345)
(-5.471529953e-07 5.070321644e-19 -0.002165912933)
(-7.528784837e-07 6.537321909e-19 -0.002165925703)
(-9.544193195e-07 2.376673992e-19 -0.002165941135)
(-1.150061284e-06 2.870462061e-19 -0.00216595857)
(-1.339420178e-06 2.22428974e-19 -0.002165977102)
(-1.522023055e-06 1.281039096e-19 -0.002165995773)
(-1.697275674e-06 7.40322602e-20 -0.002166013675)
(-1.864511489e-06 3.190140309e-20 -0.002166029996)
(-2.02316805e-06 9.201654905e-20 -0.002166043906)
(-2.172724859e-06 1.218891414e-19 -0.002166054576)
(-2.312531128e-06 1.61966659e-19 -0.002166061371)
(-2.442023141e-06 2.2883816e-19 -0.002166063694)
(-2.560705046e-06 3.054807457e-19 -0.00216606098)
(-2.668020906e-06 3.286477747e-19 -0.002166052872)
(-2.763563043e-06 2.804542943e-19 -0.002166039012)
(-2.846912109e-06 3.086512558e-19 -0.002166019191)
(-2.917724886e-06 3.364725445e-19 -0.002165993302)
(-2.97573353e-06 3.581182971e-19 -0.002165961301)
(-3.020714029e-06 3.71431185e-19 -0.002165923301)
(-3.052538873e-06 3.941448342e-19 -0.00216587943)
(-3.071128877e-06 4.35771662e-19 -0.002165829986)
(-3.076495792e-06 3.995517414e-19 -0.002165775261)
(-3.068719529e-06 3.797555316e-19 -0.002165715707)
(-3.047963945e-06 3.628951826e-19 -0.002165651755)
(-3.014461753e-06 3.816333396e-19 -0.002165583978)
(-2.968512339e-06 3.982370351e-19 -0.002165512924)
(-2.910490532e-06 4.079556065e-19 -0.002165439249)
(-2.840830093e-06 4.20514392e-19 -0.002165363573)
(-2.760033601e-06 4.36818055e-19 -0.002165286603)
(-2.66865688e-06 4.599712965e-19 -0.002165208995)
(-2.567320919e-06 4.687080403e-19 -0.002165131459)
(-2.456682646e-06 4.685252935e-19 -0.002165054649)
(-2.337451303e-06 4.737321327e-19 -0.002164979246)
(-2.210369059e-06 4.824588866e-19 -0.00216490586)
(-2.076223057e-06 4.941810635e-19 -0.002164835102)
(-1.93582144e-06 5.088547689e-19 -0.002164767509)
(-1.790000582e-06 5.117218703e-19 -0.00216470359)
(-1.639608221e-06 5.025080973e-19 -0.002164643777)
(-1.485510199e-06 4.91214006e-19 -0.002164588457)
(-1.328578585e-06 4.99890269e-19 -0.002164537931)
(-1.16968292e-06 5.057194401e-19 -0.002164492444)
(-1.009688573e-06 5.2275549e-19 -0.002164452151)
(-8.494503405e-07 5.440718625e-19 -0.002164417142)
(-6.898092698e-07 5.485478525e-19 -0.002164387407)
(-5.315609902e-07 5.411257082e-19 -0.002164362871)
(-3.75493357e-07 5.428936766e-19 -0.002164343362)
(-2.225586369e-07 5.455415212e-19 -0.002164328647)
(-7.399737225e-08 5.480127293e-19 -0.002164318357)
(-1.735176866e-07 4.068368191e-20 -0.002166835306)
(-4.507126644e-07 4.052326044e-20 -0.002166833671)
(-7.104270081e-07 -4.996185214e-20 -0.002166841352)
(-9.772609735e-07 1.550127642e-19 -0.00216685087)
(-1.23839904e-06 3.129120829e-19 -0.002166861788)
(-1.491617452e-06 9.792694879e-20 -0.002166873377)
(-1.736437566e-06 -7.76256461e-20 -0.002166884618)
(-1.97215467e-06 -5.151914535e-20 -0.002166894492)
(-2.197920943e-06 -9.872123574e-20 -0.002166902061)
(-2.412974358e-06 -5.439156633e-20 -0.002166906389)
(-2.61666432e-06 -5.011209763e-20 -0.002166906507)
(-2.808213476e-06 -1.111693813e-19 -0.002166901601)
(-2.986839408e-06 -5.001344662e-20 -0.00216689099)
(-3.151932645e-06 6.462851175e-20 -0.002166873983)
(-3.302807464e-06 1.363242484e-19 -0.002166850081)
(-3.438856454e-06 1.953241093e-19 -0.002166818895)
(-3.559582455e-06 2.354414647e-19 -0.002166780089)
(-3.664485676e-06 2.858684948e-19 -0.00216673355)
(-3.753212179e-06 3.582047559e-19 -0.00216667918)
(-3.825430849e-06 4.012143204e-19 -0.002166617081)
(-3.880946256e-06 3.653583511e-19 -0.002166547408)
(-3.919617221e-06 3.514312923e-19 -0.002166470456)
(-3.941405795e-06 3.462818e-19 -0.00216638661)
(-3.946358303e-06 3.480402249e-19 -0.002166296342)
(-3.934623021e-06 3.50541643e-19 -0.00216620022)
(-3.906434269e-06 3.554390253e-19 -0.002166098871)
(-3.862113481e-06 3.625220901e-19 -0.00216599301)
(-3.802061932e-06 3.857382483e-19 -0.00216588339)
(-3.726770332e-06 3.830302841e-19 -0.002165770827)
(-3.636799013e-06 3.895587251e-19 -0.002165656158)
(-3.532785486e-06 3.968829119e-19 -0.002165540256)
(-3.415438083e-06 4.020605087e-19 -0.002165424001)
(-3.285530078e-06 4.24746538e-19 -0.002165308275)
(-3.143886689e-06 4.42017507e-19 -0.002165193958)
(-2.991387523e-06 4.574586724e-19 -0.002165081903)
(-2.828961417e-06 4.727118985e-19 -0.002164972941)
(-2.657581831e-06 4.881814102e-19 -0.002164867851)
(-2.478257975e-06 4.866450322e-19 -0.002164767382)
(-2.292024126e-06 4.956283301e-19 -0.002164672206)
(-2.099939448e-06 5.012642543e-19 -0.002164582951)
(-1.903081847e-06 5.198457409e-19 -0.002164500152)
(-1.702541054e-06 5.203900714e-19 -0.002164424288)
(-1.499406903e-06 5.246957282e-19 -0.002164355733)
(-1.294764118e-06 5.239743441e-19 -0.002164294792)
(-1.08969432e-06 5.250877313e-19 -0.002164241655)
(-8.852566653e-07 5.139031279e-19 -0.002164196432)
(-6.824611663e-07 5.096086197e-19 -0.002164159115)
(-4.823019075e-07 5.170853399e-19 -0.00216412961)
(-2.860112796e-07 5.061023177e-19 -0.002164107719)
(-9.517576974e-08 5.007229977e-19 -0.002164093102)
(-2.223845463e-07 2.081137607e-20 -0.002167918428)
(-5.775449099e-07 -1.334498567e-20 -0.002167914531)
(-9.101768762e-07 -1.052754672e-19 -0.002167919675)
(-1.251800834e-06 -2.856481387e-19 -0.002167924863)
(-1.585902944e-06 -4.001701111e-20 -0.002167929759)
(-1.909622574e-06 -5.841275017e-20 -0.002167933604)
(-2.222276593e-06 -1.648204418e-19 -0.002167935306)
(-2.52287712e-06 -1.018843564e-19 -0.002167933797)
(-2.81039635e-06 -8.74550781e-20 -0.002167928009)
(-3.083966493e-06 -7.711088817e-20 -0.002167916833)
(-3.342660517e-06 -8.416225561e-20 -0.002167899259)
(-3.585458254e-06 -9.610867223e-20 -0.002167874469)
(-3.81152427e-06 -1.086360532e-19 -0.002167841654)
(-4.020039694e-06 -3.076597515e-20 -0.002167800127)
(-4.210154649e-06 8.220661572e-21 -0.002167749429)
(-4.381218079e-06 1.120910399e-19 -0.002167689126)
(-4.532575211e-06 1.552136334e-19 -0.002167618998)
(-4.663689268e-06 1.984392716e-19 -0.002167538956)
(-4.77413698e-06 2.3645039e-19 -0.002167449011)
(-4.863565241e-06 2.604336599e-19 -0.002167349383)
(-4.931769233e-06 2.960976194e-19 -0.002167240324)
(-4.978615095e-06 2.794621204e-19 -0.002167122317)
(-5.004110375e-06 2.611703176e-19 -0.002166995861)
(-5.00835494e-06 2.888857697e-19 -0.002166861648)
(-4.991580369e-06 3.076936976e-19 -0.002166720384)
(-4.954112893e-06 3.217438116e-19 -0.002166572939)
(-4.896386416e-06 3.324894828e-19 -0.002166420187)
(-4.818932835e-06 3.400268954e-19 -0.002166263136)
(-4.722382774e-06 3.357081043e-19 -0.00216610278)
(-4.607456544e-06 3.549424699e-19 -0.002165940219)
(-4.474959602e-06 3.608435439e-19 -0.00216577652)
(-4.325785969e-06 3.522307658e-19 -0.002165612824)
(-4.160895883e-06 3.984769886e-19 -0.002165450225)
(-3.981321565e-06 4.196446508e-19 -0.00216528986)
(-3.788153259e-06 4.382774107e-19 -0.002165132797)
(-3.582546981e-06 4.567170054e-19 -0.002164980121)
(-3.365703939e-06 4.76614893e-19 -0.002164832828)
(-3.138873455e-06 4.843519714e-19 -0.002164691911)
(-2.903336501e-06 4.95305371e-19 -0.002164558256)
(-2.660408346e-06 5.107764417e-19 -0.00216443272)
(-2.411427719e-06 5.18819363e-19 -0.002164316038)
(-2.157747025e-06 5.178026929e-19 -0.002164208897)
(-1.900724036e-06 5.208871139e-19 -0.002164111849)
(-1.64171347e-06 5.13350195e-19 -0.002164025376)
(-1.382067416e-06 5.063430383e-19 -0.002163949812)
(-1.123106765e-06 4.972904478e-19 -0.002163885408)
(-8.660982684e-07 4.974332543e-19 -0.002163832257)
(-6.122816004e-07 4.849957264e-19 -0.00216379036)
(-3.632250963e-07 4.657333565e-19 -0.002163759575)
(-1.209250125e-07 4.597908391e-19 -0.002163739605)
(-2.820616462e-07 2.492483762e-20 -0.002169184248)
(-7.324048122e-07 2.028643649e-21 -0.002169177491)
(-1.154065078e-06 -4.160090181e-20 -0.002169179266)
(-1.587068873e-06 -8.143678568e-20 -0.002169178773)
(-2.010311968e-06 -5.04985893e-20 -0.002169175833)
(-2.420087716e-06 -5.949601251e-20 -0.002169169716)
(-2.815481889e-06 -8.472248496e-20 -0.002169159248)
(-3.195268741e-06 -7.744277502e-20 -0.002169143216)
(-3.558250601e-06 -6.924668985e-20 -0.002169120362)
(-3.903253956e-06 -6.993351007e-20 -0.002169089469)
(-4.229007133e-06 -1.122559228e-19 -0.002169049534)
(-4.534360772e-06 -7.967872685e-20 -0.002168999617)
(-4.818290856e-06 -7.436905867e-20 -0.002168938823)
(-5.07970418e-06 -4.677902322e-20 -0.002168866535)
(-5.317663317e-06 -2.704777573e-20 -0.002168782247)
(-5.531345143e-06 -2.188641962e-20 -0.002168685571)
(-5.719955824e-06 6.334930989e-20 -0.002168576397)
(-5.882911521e-06 1.154613746e-19 -0.002168454669)
(-6.019680292e-06 1.425395429e-19 -0.002168320583)
(-6.129922071e-06 1.422611339e-19 -0.002168174444)
(-6.213396292e-06 1.805809731e-19 -0.002168016718)
(-6.270000928e-06 2.082605853e-19 -0.002167848032)
(-6.29978383e-06 2.289683339e-19 -0.002167669104)
(-6.302927891e-06 2.508831013e-19 -0.002167480824)
(-6.279759105e-06 2.737377304e-19 -0.002167284128)
(-6.230726645e-06 2.943630793e-19 -0.002167080117)
(-6.15640293e-06 3.133871905e-19 -0.002166869916)
(-6.057486755e-06 3.324709824e-19 -0.002166654779)
(-5.934782826e-06 3.534685954e-19 -0.002166435964)
(-5.789210398e-06 3.571933141e-19 -0.002166214834)
(-5.621785924e-06 3.632382416e-19 -0.002165992731)
(-5.433630502e-06 3.704574011e-19 -0.002165771064)
(-5.225938895e-06 3.800876678e-19 -0.002165551214)
(-4.999995852e-06 3.992032454e-19 -0.002165334588)
(-4.757153952e-06 4.147679899e-19 -0.002165122546)
(-4.498844935e-06 4.280695007e-19 -0.002164916444)
(-4.226551671e-06 4.384801253e-19 -0.002164717572)
(-3.941815175e-06 4.595574082e-19 -0.002164527188)
(-3.646218936e-06 4.676445185e-19 -0.002164346465)
(-3.341388863e-06 4.799070799e-19 -0.002164176513)
(-3.028980128e-06 4.899341727e-19 -0.002164018341)
(-2.710664389e-06 4.92171849e-19 -0.002163872868)
(-2.388121622e-06 4.953120608e-19 -0.00216374089)
(-2.06303438e-06 4.982958829e-19 -0.00216362309)
(-1.737077062e-06 5.018853342e-19 -0.002163520005)
(-1.411889325e-06 5.061594483e-19 -0.002163432041)
(-1.089041913e-06 5.131377922e-19 -0.002163359438)
(-7.700729487e-07 5.089877325e-19 -0.002163302304)
(-4.569465968e-07 5.07174057e-19 -0.002163260584)
(-1.521534366e-07 5.004912063e-19 -0.002163234028)
(-3.548027631e-07 3.137563549e-20 -0.002170670152)
(-9.211376438e-07 2.312963042e-20 -0.00217065983)
(-1.451295011e-06 1.228134709e-21 -0.00217065726)
(-1.995671428e-06 -1.538070655e-20 -0.00217064951)
(-2.527501394e-06 -1.973662995e-20 -0.002170636663)
(-3.042076813e-06 -3.352091613e-20 -0.002170617995)
(-3.538287261e-06 -5.168143694e-20 -0.002170592173)
(-4.014657292e-06 -5.627926621e-20 -0.002170557775)
(-4.469640673e-06 -3.756624372e-20 -0.002170513398)
(-4.901630091e-06 1.636759897e-20 -0.002170457801)
(-5.309088262e-06 -6.902778382e-21 -0.002170389861)
(-5.690697006e-06 -7.731201751e-21 -0.00217030849)
(-6.045086695e-06 -8.013676535e-20 -0.00217021282)
(-6.370926798e-06 -4.58934406e-20 -0.002170102228)
(-6.667137164e-06 -3.073864493e-20 -0.002169976174)
(-6.932647883e-06 -3.524611911e-20 -0.002169834409)
(-7.16657145e-06 3.68692063e-20 -0.002169676866)
(-7.368188753e-06 8.532347243e-20 -0.002169503632)
(-7.536893898e-06 1.120897506e-19 -0.002169315072)
(-7.672307744e-06 1.319641605e-19 -0.002169111631)
(-7.774165037e-06 1.606409495e-19 -0.002168894042)
(-7.842419907e-06 1.50473638e-19 -0.0021686631)
(-7.877163793e-06 1.852345412e-19 -0.002168419821)
(-7.878693633e-06 2.00572116e-19 -0.0021681653)
(-7.847445397e-06 2.403726665e-19 -0.002167900798)
(-7.784029555e-06 2.678109942e-19 -0.002167627655)
(-7.689192313e-06 2.915744026e-19 -0.00216734733)
(-7.563839036e-06 3.161561689e-19 -0.002167061341)
(-7.408996747e-06 3.460851318e-19 -0.002166771295)
(-7.225830394e-06 3.480764846e-19 -0.00216647883)
(-7.01562257e-06 3.579481682e-19 -0.002166185645)
(-6.77977097e-06 3.755693706e-19 -0.002165893442)
(-6.51976933e-06 3.623369906e-19 -0.002165603962)
(-6.237208306e-06 3.8962797e-19 -0.002165318915)
(-5.933769249e-06 3.995682354e-19 -0.002165040023)
(-5.611215555e-06 4.114357486e-19 -0.002164768951)
(-5.27138142e-06 3.9105971e-19 -0.002164507355)
(-4.916164633e-06 4.075490046e-19 -0.0021642568)
(-4.547516879e-06 4.100292393e-19 -0.002164018816)
(-4.167440199e-06 4.128500668e-19 -0.002163794813)
(-3.777970572e-06 4.420791647e-19 -0.002163586136)
(-3.381167094e-06 4.578857329e-19 -0.002163393985)
(-2.979096352e-06 4.68811537e-19 -0.002163219455)
(-2.573833264e-06 4.792154545e-19 -0.002163063471)
(-2.167437574e-06 4.937943454e-19 -0.002162926824)
(-1.761937489e-06 4.944309488e-19 -0.002162810107)
(-1.359264808e-06 5.050710966e-19 -0.00216271375)
(-9.613218289e-07 5.143149452e-19 -0.002162637987)
(-5.705359047e-07 5.132583551e-19 -0.002162582889)
(-1.8998205e-07 4.967259129e-19 -0.002162548259)
(-4.432811826e-07 3.525184211e-20 -0.002172420443)
(-1.150649324e-06 3.943466516e-20 -0.002172405753)
(-1.812706855e-06 3.066549814e-20 -0.002172397755)
(-2.492490109e-06 2.620338445e-20 -0.002172380968)
(-3.156327269e-06 2.204865412e-20 -0.002172355777)
(-3.798361322e-06 -6.455517253e-22 -0.002172321432)
(-4.417272276e-06 -3.979468029e-20 -0.002172276385)
(-5.011184853e-06 -7.869743816e-20 -0.002172219031)
(-5.578025338e-06 -7.104847504e-20 -0.00217214789)
(-6.115800343e-06 -5.152804457e-20 -0.002172061613)
(-6.622743442e-06 -2.246657047e-20 -0.002171958874)
(-7.097134397e-06 -4.389389485e-20 -0.002171838508)
(-7.537215495e-06 -4.981197483e-20 -0.002171699687)
(-7.941477821e-06 -6.866145757e-21 -0.002171541716)
(-8.308531019e-06 8.596754586e-21 -0.002171364117)
(-8.637063241e-06 2.294194002e-20 -0.002171166761)
(-8.9260588e-06 5.640553262e-20 -0.002170949647)
(-9.174606222e-06 1.042925647e-19 -0.002170713094)
(-9.382054193e-06 1.012934373e-19 -0.002170457615)
(-9.54793569e-06 1.09106897e-19 -0.002170183926)
(-9.671988954e-06 1.215920176e-19 -0.002169892997)
(-9.754200291e-06 1.556229436e-19 -0.002169585905)
(-9.79474831e-06 1.853263688e-19 -0.00216926398)
(-9.794044391e-06 2.121857786e-19 -0.002168928616)
(-9.752683616e-06 2.321426054e-19 -0.002168581435)
(-9.671463738e-06 2.507535584e-19 -0.002168224093)
(-9.551360859e-06 2.682551184e-19 -0.002167858436)
(-9.393529946e-06 2.87130375e-19 -0.002167486314)
(-9.199284168e-06 3.050586119e-19 -0.002167109733)
(-8.970092725e-06 3.199406469e-19 -0.002166730679)
(-8.707570663e-06 3.341487912e-19 -0.002166351256)
(-8.413458166e-06 3.479650957e-19 -0.002165973531)
(-8.089618722e-06 3.597861728e-19 -0.002165599654)
(-7.73802515e-06 3.631971613e-19 -0.002165231712)
(-7.360761431e-06 3.792518096e-19 -0.00216487184)
(-6.960001138e-06 3.941902886e-19 -0.002164522092)
(-6.538006666e-06 4.061388707e-19 -0.002164184534)
(-6.097110905e-06 4.188626122e-19 -0.002163861126)
(-5.639716139e-06 4.269198234e-19 -0.002163553799)
(-5.168279974e-06 4.209893572e-19 -0.002163264349)
(-4.685299889e-06 4.374303875e-19 -0.002162994502)
(-4.193300986e-06 4.425717471e-19 -0.002162745815)
(-3.694819562e-06 4.430162884e-19 -0.002162519727)
(-3.19239942e-06 4.382975626e-19 -0.002162317472)
(-2.688564437e-06 4.261479371e-19 -0.002162140129)
(-2.185799981e-06 4.206870451e-19 -0.002161988538)
(-1.686467461e-06 4.245232332e-19 -0.002161863346)
(-1.192906309e-06 4.386007492e-19 -0.002161764956)
(-7.080938115e-07 4.496330071e-19 -0.00216169359)
(-2.357742989e-07 4.592028627e-19 -0.002161649123)
(-5.506374613e-07 3.910471263e-20 -0.002174487727)
(-1.42906291e-06 4.900503056e-20 -0.002174467733)
(-2.251093091e-06 5.028839017e-20 -0.002174453028)
(-3.095180775e-06 6.4339958e-20 -0.002174425066)
(-3.91922152e-06 9.181389179e-20 -0.002174384576)
(-4.716005487e-06 6.335222206e-20 -0.002174330776)
(-5.483912208e-06 -2.707544745e-20 -0.002174261903)
(-6.220477346e-06 -1.855880225e-19 -0.002174176217)
(-6.923093927e-06 -1.290223659e-19 -0.002174072102)
(-7.589411162e-06 -9.115034544e-20 -0.002173947972)
(-8.217238489e-06 4.043906845e-21 -0.002173802338)
(-8.80432572e-06 -1.886860289e-20 -0.002173634032)
(-9.348576144e-06 8.23943569e-20 -0.002173442153)
(-9.848162553e-06 8.61225396e-20 -0.002173225966)
(-1.030129675e-05 4.969344831e-20 -0.00217298514)
(-1.070646289e-05 4.140625358e-20 -0.002172719606)
(-1.10623847e-05 4.201062242e-20 -0.002172429536)
(-1.136796714e-05 4.04274784e-20 -0.002172115489)
(-1.162245532e-05 6.355100193e-20 -0.002171778179)
(-1.182528069e-05 7.48992402e-20 -0.002171418683)
(-1.197621432e-05 6.661496196e-20 -0.002171038229)
(-1.207525602e-05 1.663391207e-19 -0.002170638301)
(-1.212270268e-05 1.973763916e-19 -0.002170220559)
(-1.211909258e-05 2.535817294e-19 -0.00216978683)
(-1.20652268e-05 2.442934869e-19 -0.002169339115)
(-1.196212826e-05 2.433392766e-19 -0.00216887952)
(-1.18110639e-05 2.429444323e-19 -0.002168410295)
(-1.161349545e-05 2.606535092e-19 -0.002167933752)
(-1.137109466e-05 2.717121448e-19 -0.002167452318)
(-1.108570763e-05 2.933269761e-19 -0.002166968451)
(-1.075936206e-05 3.118028075e-19 -0.002166484687)
(-1.039422482e-05 3.278065887e-19 -0.002166003574)
(-9.992616501e-06 3.441007966e-19 -0.002165527701)
(-9.556983802e-06 3.355089564e-19 -0.002165059647)
(-9.08990506e-06 3.640456356e-19 -0.002164601996)
(-8.594060103e-06 3.930045723e-19 -0.002164157298)
(-8.072234918e-06 4.481323255e-19 -0.002163728078)
(-7.527295292e-06 4.576159917e-19 -0.002163316789)
(-6.962191904e-06 4.629049777e-19 -0.002162925817)
(-6.379934862e-06 4.699725224e-19 -0.002162557438)
(-5.783582118e-06 4.645434756e-19 -0.002162213812)
(-5.176219176e-06 4.519357357e-19 -0.00216189694)
(-4.560950565e-06 4.432725534e-19 -0.002161608653)
(-3.9408789e-06 4.349859363e-19 -0.002161350576)
(-3.319089038e-06 4.235979638e-19 -0.002161124117)
(-2.698608796e-06 4.27133514e-19 -0.002160930426)
(-2.082318158e-06 4.197715214e-19 -0.002160770398)
(-1.473073607e-06 4.153499608e-19 -0.002160644656)
(-8.74513454e-07 4.306318809e-19 -0.002160553593)
(-2.911464321e-07 4.449151758e-19 -0.002160497193)
(-6.805867807e-07 3.960909721e-20 -0.002176933961)
(-1.765993806e-06 4.986547489e-20 -0.002176907541)
(-2.781605437e-06 4.453864715e-20 -0.002176884576)
(-3.824612729e-06 7.157362555e-20 -0.002176842856)
(-4.84265852e-06 2.295416998e-19 -0.002176783531)
(-5.826878118e-06 2.21025893e-19 -0.002176705821)
(-6.775208041e-06 1.043018834e-19 -0.002176607772)
(-7.684547621e-06 5.820757816e-20 -0.002176487451)
(-8.551751754e-06 1.541802672e-19 -0.002176342971)
(-9.373975067e-06 1.062119407e-19 -0.002176172491)
(-1.014838488e-05 1.769849934e-19 -0.002175974425)
(-1.087218793e-05 7.753120723e-20 -0.002175747542)
(-1.154292636e-05 5.694478296e-20 -0.002175490812)
(-1.215825316e-05 2.464320978e-20 -0.002175203563)
(-1.271596824e-05 3.333633452e-20 -0.00217488557)
(-1.321427211e-05 4.07782387e-20 -0.00217453685)
(-1.365153994e-05 3.260331438e-20 -0.002174157859)
(-1.402650538e-05 1.621682381e-21 -0.002173749372)
(-1.433821916e-05 4.253970804e-20 -0.002173312448)
(-1.458603643e-05 7.429350287e-20 -0.002172848525)
(-1.476969961e-05 1.163575211e-19 -0.002172359206)
(-1.488924806e-05 1.35355445e-19 -0.002171846458)
(-1.494509932e-05 1.581581575e-19 -0.002171312358)
(-1.493795749e-05 1.80691593e-19 -0.002170759274)
(-1.48688642e-05 2.123664607e-19 -0.002170189659)
(-1.473912975e-05 2.388334691e-19 -0.002169606184)
(-1.455036747e-05 2.440515855e-19 -0.002169011574)
(-1.430442544e-05 2.549480727e-19 -0.002168408721)
(-1.400341006e-05 2.480380687e-19 -0.002167800543)
(-1.364963905e-05 2.721238267e-19 -0.002167190076)
(-1.324564288e-05 2.955981704e-19 -0.002166580366)
(-1.279412467e-05 3.025209166e-19 -0.002165974542)
(-1.229796625e-05 3.306878184e-19 -0.002165375712)
(-1.176020204e-05 3.415534672e-19 -0.002164787038)
(-1.118401558e-05 3.427885111e-19 -0.002164211637)
(-1.057271274e-05 3.643701744e-19 -0.002163652651)
(-9.929719175e-06 3.920039371e-19 -0.002163113141)
(-9.258555916e-06 3.873636836e-19 -0.002162596152)
(-8.562839786e-06 4.120836187e-19 -0.002162104601)
(-7.846252777e-06 4.346063897e-19 -0.002161641335)
(-7.11253256e-06 4.410988001e-19 -0.002161209025)
(-6.365442609e-06 4.362311296e-19 -0.002160810198)
(-5.608770084e-06 4.351790973e-19 -0.002160447148)
(-4.846287661e-06 4.390568656e-19 -0.002160121961)
(-4.08175397e-06 4.481291096e-19 -0.002159836431)
(-3.318850135e-06 4.514902204e-19 -0.002159592086)
(-2.561085012e-06 4.368458459e-19 -0.002159390111)
(-1.81192036e-06 4.128523043e-19 -0.002159231399)
(-1.075787861e-06 4.106312593e-19 -0.002159116549)
(-3.580732766e-07 4.168571597e-19 -0.002159045696)
(-8.374742183e-07 3.863868452e-20 -0.002179831665)
(-2.172680815e-06 4.128336435e-20 -0.00217979749)
(-3.421958448e-06 -1.925612247e-20 -0.002179764421)
(-4.705231199e-06 -1.568555229e-19 -0.002179705903)
(-5.957602052e-06 -5.876772468e-20 -0.002179623632)
(-7.168186363e-06 1.572106477e-20 -0.002179516888)
(-8.334474814e-06 1.469466701e-19 -0.002179383452)
(-9.452686417e-06 3.759051156e-19 -0.002179221065)
(-1.051902984e-05 3.033160808e-19 -0.00217902751)
(-1.152990504e-05 1.282990994e-19 -0.002178800721)
(-1.248174072e-05 5.48479999e-20 -0.002178539014)
(-1.337123373e-05 4.422093211e-20 -0.002178240973)
(-1.419532369e-05 7.737868285e-21 -0.002177905479)
(-1.495103591e-05 -6.429821655e-20 -0.00217753198)
(-1.563577629e-05 1.386709241e-20 -0.002177120293)
(-1.624726763e-05 6.946627411e-20 -0.002176670625)
(-1.678350577e-05 7.068916424e-20 -0.00217618373)
(-1.724297723e-05 3.606414428e-20 -0.002175660655)
(-1.762447681e-05 3.721036406e-20 -0.002175102923)
(-1.792728554e-05 5.188368134e-20 -0.002174512364)
(-1.815106157e-05 7.296134364e-20 -0.002173891132)
(-1.829590478e-05 9.640053584e-20 -0.002173241698)
(-1.836233743e-05 1.144663593e-19 -0.002172566731)
(-1.835127497e-05 1.206562455e-19 -0.002171869192)
(-1.8264024e-05 1.730894598e-19 -0.002171152151)
(-1.810225423e-05 1.969520356e-19 -0.002170418917)
(-1.786797964e-05 2.195078467e-19 -0.002169672847)
(-1.756353033e-05 2.213728238e-19 -0.002168917492)
(-1.719153445e-05 2.320398009e-19 -0.002168156406)
(-1.675489409e-05 2.512423469e-19 -0.002167393291)
(-1.62567507e-05 2.492132093e-19 -0.002166631835)
(-1.570047273e-05 2.755253632e-19 -0.002165875835)
(-1.508962952e-05 2.932384979e-19 -0.002165129047)
(-1.442798398e-05 3.243459904e-19 -0.002164395303)
(-1.371946093e-05 3.17353636e-19 -0.00216367838)
(-1.296814023e-05 3.064688262e-19 -0.002162982091)
(-1.21782294e-05 3.009545143e-19 -0.002162310165)
(-1.135405715e-05 3.205295924e-19 -0.002161666311)
(-1.050005115e-05 3.625628084e-19 -0.002161054104)
(-9.620715541e-06 3.763171297e-19 -0.002160477037)
(-8.72061098e-06 3.815317445e-19 -0.002159938401)
(-7.804328779e-06 3.915310878e-19 -0.002159441325)
(-6.876478063e-06 3.920105016e-19 -0.00215898866)
(-5.941645909e-06 4.089941103e-19 -0.002158583019)
(-5.004392777e-06 4.183327576e-19 -0.002158226665)
(-4.069179825e-06 4.218521166e-19 -0.002157921554)
(-3.14027122e-06 4.199095955e-19 -0.002157669226)
(-2.22185013e-06 4.132269586e-19 -0.002157470891)
(-1.319285158e-06 4.076106199e-19 -0.002157327396)
(-4.389822724e-07 4.115128315e-19 -0.002157239062)
(-1.026369818e-06 6.309028531e-20 -0.00218326546)
(-2.662235482e-06 1.086647371e-19 -0.002183221989)
(-4.192787672e-06 3.44605081e-20 -0.002183176693)
(-5.765388125e-06 -5.466960166e-20 -0.002183097896)
(-7.299913324e-06 -2.453038565e-19 -0.002182988014)
(-8.783159393e-06 -2.018493375e-19 -0.002182846337)
(-1.021216188e-05 2.675962545e-20 -0.002182670252)
(-1.158234236e-05 1.813414611e-19 -0.002182457097)
(-1.288900461e-05 1.433050279e-20 -0.002182204313)
(-1.412761963e-05 8.581468037e-23 -0.002181909644)
(-1.529387364e-05 -1.225408183e-19 -0.002181571152)
(-1.638380575e-05 4.388022978e-20 -0.002181187203)
(-1.739353813e-05 1.51510506e-19 -0.002180756681)
(-1.831943095e-05 8.20482544e-20 -0.002180279059)
(-1.915834422e-05 3.218267076e-20 -0.002179754224)
(-1.990738913e-05 -6.045920434e-21 -0.002179182685)
(-2.056416407e-05 -2.197975505e-20 -0.002178565464)
(-2.112674667e-05 -3.470691424e-21 -0.002177904014)
(-2.15936554e-05 5.847289757e-21 -0.002177200364)
(-2.196399511e-05 1.671383916e-20 -0.002176456848)
(-2.223732345e-05 1.660272946e-20 -0.002175676299)
(-2.241379439e-05 5.862910411e-20 -0.002174861787)
(-2.249402122e-05 8.11184682e-20 -0.002174016744)
(-2.247916072e-05 9.312149183e-20 -0.002173144815)
(-2.237081317e-05 1.027453553e-19 -0.002172249877)
(-2.217106709e-05 1.075925421e-19 -0.002171335972)
(-2.188240613e-05 1.481309129e-19 -0.002170407284)
(-2.150773772e-05 1.542915238e-19 -0.002169468113)
(-2.10503152e-05 1.819269903e-19 -0.002168522841)
(-2.051374821e-05 2.010654899e-19 -0.002167575933)
(-1.990192334e-05 2.326014603e-19 -0.002166631898)
(-1.92190216e-05 2.699935383e-19 -0.002165695291)
(-1.846945608e-05 2.608537012e-19 -0.00216477069)
(-1.765788259e-05 2.738119929e-19 -0.002163862691)
(-1.678913927e-05 2.996973644e-19 -0.002162975891)
(-1.586825655e-05 3.054293939e-19 -0.002162114871)
(-1.490040453e-05 3.135669672e-19 -0.002161284174)
(-1.389090279e-05 3.448783306e-19 -0.002160488271)
(-1.284517212e-05 3.44077544e-19 -0.002159731535)
(-1.17687245e-05 3.470383517e-19 -0.002159018192)
(-1.066712238e-05 3.578717661e-19 -0.002158352285)
(-9.54596835e-06 3.801669856e-19 -0.00215773762)
(-8.410863795e-06 3.985304024e-19 -0.002157177725)
(-7.267388305e-06 4.074207829e-19 -0.002156675807)
(-6.121065e-06 4.148975223e-19 -0.002156234699)
(-4.97729987e-06 4.22117135e-19 -0.002155856834)
(-3.84126186e-06 4.304486451e-19 -0.002155544184)
(-2.718005648e-06 4.442116227e-19 -0.002155298315)
(-1.614003667e-06 4.333555666e-19 -0.002155120383)
(-5.368402032e-07 4.297848703e-19 -0.00215501092)
(-1.253098238e-06 1.310504766e-19 -0.002187333756)
(-3.249690657e-06 3.662685339e-19 -0.002187279254)
(-5.117739828e-06 1.365607033e-19 -0.002187219385)
(-7.03765048e-06 9.108120197e-20 -0.002187116394)
(-8.910934405e-06 3.960822822e-20 -0.00218697355)
(-1.072172953e-05 -5.996775531e-20 -0.002186790092)
(-1.246655938e-05 -1.329006957e-20 -0.002186562926)
(-1.413981626e-05 1.903248838e-20 -0.002186288939)