/*--------------------------------*- C++ -*----------------------------------*\
  =========                 |
  \\      /  F ield         | OpenFOAM: The Open Source CFD Toolbox
   \\    /   O peration     | Website:  https://openfoam.org
    \\  /    A nd           | Version:  7
     \\/     M anipulation  |
\*---------------------------------------------------------------------------*/
FoamFile
{
    version     2.0;
    format      ascii;
    class       volScalarField;
    location    "0.0003";
    object      generalizedNewtonian:nu;
}
// * * * * * * * * * * * * * * * * * * * * * * * * * * * * * * * * * * * * * //

dimensions      [0 2 -1 0 0 0 0];

internalField   nonuniform List<scalar> 
1167
(
0.7582740521
0.7917916237
0.7849827534
0.7852261731
0.7753399043
0.7642490478
0.7514108355
0.7367377939
0.7205546298
0.7031779447
0.684877754
0.6659034378
0.6464839918
0.6268282251
0.6071159228
0.5875036594
0.5681228774
0.5490808063
0.5304621978
0.5123344381
0.4947387528
0.4777037134
0.4612438241
0.44535446
0.4300222322
0.4152225067
0.4009188189
0.387064631
0.3736053722
0.3604765409
0.3476027331
0.3349015239
0.3222787558
0.3096334324
0.2968578704
0.2838433899
0.2704900727
0.2567244159
0.2425181541
0.2279168425
0.2130572389
0.1981650265
0.1835287106
0.1694478241
0.1561725441
0.1438545162
0.1325237127
0.1220984683
0.11241873
0.1032917677
0.09458102392
0.8511528735
0.8437433755
0.8436933147
0.832591985
0.8200262714
0.8054609722
0.7888135541
0.7704448261
0.7507083598
0.7299077677
0.7083224358
0.6862081765
0.6637966408
0.6412887216
0.6188556859
0.5966459659
0.5747729491
0.5533349635
0.5324004994
0.5120195546
0.4922267314
0.4730368194
0.4544532758
0.4364698549
0.4190660672
0.4022145835
0.3858824401
0.3700254133
0.3545940748
0.3395331027
0.324777751
0.3102584832
0.2958976611
0.2816133489
0.2673199098
0.2529356248
0.2383924906
0.2236563924
0.2087463997
0.1937631091
0.1788998949
0.1644291483
0.1506670116
0.1379281562
0.1264982873
0.1166361409
0.1085897174
0.1025918324
0.09880201747
0.09710974087
0.9478872284
0.9393593217
0.9388531415
0.9259385517
0.9112462379
0.8941999509
0.8747391514
0.8532823076
0.8302458958
0.8059910663
0.7808498253
0.7551259387
0.7290920877
0.7029899815
0.6770201698
0.6513547812
0.6261304429
0.6014549464
0.5774080229
0.5540421764
0.5313864757
0.5094551244
0.488238759
0.4677186255
0.4478648034
0.4286360491
0.4099877337
0.3918684315
0.3742220674
0.356992117
0.3401163873
0.3235314812
0.3071716421
0.2909680688
0.2748527362
0.2587576891
0.2426254797
0.2264169303
0.210130198
0.1938260178
0.1776495023
0.1618408166
0.1467064799
0.1325440072
0.119532865
0.1076314337
0.09656068514
0.08596330013
0.07569413607
0.06593892698
1.101010235
1.091088328
1.089981976
1.074201944
1.056121497
1.035147393
1.011267372
0.9850142492
0.9569129321
0.9274232425
0.896964301
0.8659149194
0.8346081769
0.8033325569
0.7723257758
0.7417726603
0.7118174452
0.6825614831
0.6540650247
0.6263595746
0.5994432864
0.5732997534
0.5478942246
0.5231841716
0.4991264429
0.4756738954
0.4527868972
0.4304263304
0.4085580769
0.3871493382
0.3661648034
0.3455697758
0.3253196076
0.3053674606
0.285658559
0.2661365832
0.2467457413
0.2274435403
0.2082111649
0.1890779743
0.1701474104
0.1516304875
0.1338639963
0.1172880767
0.1023892118
0.08967683522
0.07979229014
0.07368696932
0.07258855173
0.07743655857
1.333913883
1.321489181
1.319163557
1.298813128
1.275396838
1.248263748
1.217453822
1.183680238
1.147630076
1.109910618
1.071070722
1.031600461
0.9919244208
0.9524024344
0.9133302962
0.8749463918
0.8374355944
0.8009382521
0.7655698874
0.7314181102
0.6985509288
0.6670286559
0.6368905115
0.6081677385
0.5808593571
0.5549477887
0.5303726786
0.5070449754
0.4848334244
0.4635755705
0.4430726752
0.4231045618
0.4034315147
0.3838115756
0.364008746
0.3438129522
0.3230478873
0.3015865321
0.2793501382
0.2563153044
0.2325120742
0.2080507157
0.1831702253
0.1582657217
0.1338633421
0.1105958708
0.08897767718
0.06859466288
0.04831772802
0.02970226221
1.636071131
1.620548021
1.615652644
1.587820229
1.555815858
1.518848855
1.477234963
1.432094617
1.384454481
1.335202482
1.285126844
1.234909759
1.185126509
1.136256666
1.088696963
1.042779366
0.9987784067
0.9569284139
0.917436912
0.8804703579
0.8461452986
0.8145296326
0.7856100824
0.7593013072
0.7354257219
0.71373343
0.693901451
0.6755636305
0.6583220021
0.6417685031
0.6254791967
0.6090140918
0.5918844011
0.573545276
0.5533866193
0.530783221
0.5051666384
0.4761431153
0.443614015
0.4078629212
0.3695002516
0.3291709045
0.2871692619
0.2434180609
0.1982624277
0.1535579753
0.112345171
0.07654085025
0.04654472099
0.02467688055
1.956501259
1.936961444
1.929580524
1.894887164
1.855178363
1.809475851
1.758399681
1.703490837
1.646152059
1.587572061
1.528803959
1.470765665
1.414250535
1.359951267
1.308476839
1.260344286
1.215975193
1.175668199
1.139558862
1.107540208
1.079236128
1.053942388
1.030610899
1.007867229
0.9840741342
0.9574885837
0.9264582394
0.8897035989
0.8465798159
0.7972763736
0.742845576
0.6850237532
0.6258591961
0.5672814081
0.5107712646
0.4572259436
0.4070132742
0.3601319436
0.3163853747
0.2755061232
0.2372225614
0.2013312218
0.1678253461
0.1370466646
0.1096681726
0.08645978607
0.06806573719
0.0549325758
0.04711782342
0.04399559524
2.395213313
2.36983394
2.356118724
2.30770355
2.252149329
2.188875155
2.119282764
2.045765265
1.970467866
1.895218489
1.821596641
1.750957534
1.684431824
1.622902762
1.566939299
1.516728737
1.471989789
1.431909071
1.395078642
1.359557366
1.323020977
1.283018611
1.237390947
1.184646862
1.124339978
1.05716461
0.9848289048
0.9096313853
0.8340013843
0.760055183
0.6893928031
0.6230400838
0.5615285343
0.5049822562
0.4532182334
0.4058252131
0.3622500109
0.3218840821
0.2841529139
0.2486008193
0.2149865446
0.1833724742
0.1541562333
0.1279497083
0.1053120683
0.08645277948
0.07109725349
0.0586197947
0.04836231513
0.03981603512
3.028464483
2.993724447
2.969964712
2.901469779
2.82335963
2.736075544
2.64252118
2.546624221
2.451801942
2.360838862
2.275890012
2.198383891
2.128884119
2.066928561
2.010887519
1.957939355
1.904243599
1.845384862
1.777153492
1.696568901
1.602743457
1.497310223
1.384018698
1.267682905
1.152955617
1.043435368
0.9413438975
0.8476699096
0.7625186472
0.6854776959
0.6158797687
0.5529871004
0.4960644314
0.4444192652
0.3973898064
0.3543530305
0.3147251507
0.2780043742
0.2438160772
0.2119731635
0.1825018684
0.1556205793
0.1316349258
0.1107978482
0.09320039941
0.07875298967
0.0672436933
0.05839630929
0.05187254545
0.04721295905
3.962977797
3.913216991
3.870558623
3.768493459
3.654307986
3.531422163
3.405714253
3.283442159
3.168952947
3.064418754
2.969684982
2.882158192
2.796937814
2.707381111
2.606278051
2.48764361
2.348619355
2.190674963
2.019379057
1.84264863
1.668401546
1.502842505
1.34975653
1.210801728
1.086090836
0.97484134
0.8757935013
0.7875391445
0.7086744815
0.637919001
0.5741475643
0.5164068249
0.4638970182
0.4159419509
0.3719633682
0.3314582684
0.2940050257
0.2592833026
0.2271127901
0.1974692347
0.1704676272
0.1462899941
0.1250861492
0.1068890834
0.09157664739
0.07888892684
0.06847862111
0.05996984063
0.05299060218
0.04715917129
5.42266107
5.346599535
5.26904614
5.114207993
4.949412518
4.782930246
4.622230799
4.471102601
4.327127938
4.182533247
4.026050625
3.845858467
3.633530087
3.387676913
3.115315389
2.829745193
2.545909477
2.276160593
2.028236687
1.80539952
1.607783333
1.43373916
1.280822984
1.146399232
1.027946658
0.9231941624
0.8301528961
0.7471123688
0.6726201354
0.6054519575
0.5445974053
0.4892193573
0.438637613
0.392287191
0.3497050054
0.3105111969
0.2744163334
0.2412314411
0.2108767957
0.1833631534
0.1587487399
0.1370723291
0.1183004512
0.1023006808
0.08885222829
0.07767915107
0.06848679987
0.0609867954
0.05490178193
0.04994051702
7.906551469
7.790329309
7.656668388
7.426015223
7.186622543
6.938963598
6.674152644
6.376104406
6.026984776
5.61698626
5.152041675
4.653945816
4.152399857
3.674370999
3.237473019
2.849230234
2.509902964
2.215810361
1.961645602
1.741804282
1.551092238
1.384930979
1.239449952
1.111404288
0.9981247251
0.8973936086
0.8073877286
0.7265836673
0.6537203995
0.5877404904
0.5277715576
0.4730917407
0.4231078558
0.3773360155
0.3353838567
0.2969468782
0.2618025654
0.2298133571
0.2009076347
0.1750515548
0.152204584
0.1322803313
0.1151252626
0.1005176933
0.08818797
0.07784324203
0.06919075711
0.0619533414
0.05587154326
0.05069029142
12.81382682
12.61114705
12.2784702
11.75610167
11.11507517
10.33566932
9.425563132
8.42917468
7.415981861
6.45358585
5.586125859
4.830677727
4.185353337
3.638897563
3.177098576
2.786054851
2.453497937
2.169151105
1.924529033
1.712759979
1.52830269
1.366679627
1.224281284
1.098166875
0.9859522047
0.8856672602
0.7956878478
0.714659426
0.6414465217
0.5750975787
0.5148134689
0.4599344776
0.4099097873
0.3642948478
0.3227304616
0.2849392332
0.2507124197
0.2198988779
0.1923782431
0.1680335725
0.146720351
0.1282517512
0.1123951638
0.09888351594
0.08743435528
0.07776794329
0.06962108324
0.06275499587
0.05695362635
0.05200803445
22.98263426
22.11938115
20.22001894
17.82639046
15.28243662
12.88432333
10.79771989
9.059974451
7.639904115
6.484985339
5.543350042
4.770930417
4.132411686
3.600136803
3.152639349
2.773293939
2.4492282
2.170376782
1.928800904
1.71823552
1.533658003
1.371040498
1.227104217
1.099171636
0.9850347339
0.8828606273
0.7911091043
0.7084932122
0.6339164781
0.5664589003
0.5053396425
0.4499093377
0.3996264259
0.3540472055
0.3128127139
0.2756318925
0.242269258
0.2125223101
0.1862002394
0.1631009361
0.1429972021
0.1256340621
0.1107331391
0.09800640773
0.08716976413
0.07795437613
0.07011379582
0.06342771014
0.05769833755
0.05273880002
33.12379522
29.56706409
24.46967803
19.78940267
15.99683039
13.04865448
10.7698669
8.992970837
7.588447957
6.462382938
5.547456258
4.795009409
4.16935804
3.643933268
3.198698538
2.818380861
2.491209794
2.207936694
1.961257853
1.745347351
1.555484666
1.387849476
1.239273636
1.107155129
0.9893088303
0.8839129804
0.789416436
0.704515821
0.6280987793
0.5592226299
0.4970907534
0.4410310923
0.3904836556
0.3449784597
0.3041277236
0.2675976814
0.2350993413
0.2063615588
0.1811190696
0.1590953312
0.1400010465
0.1235365519
0.1093985724
0.09729232575
0.08694016742
0.07808809296
0.0705090646
0.06400399697
0.05839722382
0.05352460728
34.09880874
29.71043131
24.36029062
19.6430681
15.92815732
13.0651959
10.84820087
9.109116844
7.724221625
6.604907167
5.687989578
4.927917034
4.291284922
3.753146902
3.294604687
2.901162371
2.561481425
2.266592821
2.009360719
1.783994575
1.585778791
1.410837687
1.255946155
1.118419122
0.9959981878
0.8867782692
0.789143536
0.701720751
0.6233451512
0.5530202713
0.4899072881
0.4332896455
0.382564908
0.3372184927
0.296809624
0.2609470189
0.229274233
0.2014512159
0.1771453718
0.1560220776
0.1377488963
0.1219986807
0.1084566339
0.09682839711
0.08684483254
0.07826464794
0.07087527165
0.0644917006
0.05895146491
0.05410425108
32.69660935
28.98326145
24.19781873
19.78501772
16.20491278
13.39090627
11.17952452
9.424105772
8.012822817
6.863312265
5.915576133
5.125742256
4.461291874
3.897736957
3.416390837
3.002706958
2.645219553
2.334809201
2.064143332
1.827218442
1.61913077
1.435801674
1.273841875
1.130401496
1.003089374
0.889872013
0.7890340698
0.6991060348
0.6188456252
0.5471868645
0.4832257508
0.4261891539
0.3754136071
0.3303255716
0.2904182521
0.255234398
0.2243487573
0.1973580822
0.1738734188
0.1535174484
0.1359288558
0.1207647297
0.107706491
0.0964641593
0.0867781689
0.07841931637
0.07118820641
0.06491274395
0.05944291779
0.0546408075
29.33991355
27.03915139
23.5266763
19.81495377
16.52302226
13.80060266
11.59659986
9.813629006
8.361645465
7.168405464
6.178390825
5.349607396
4.650215268
4.055859333
3.547637921
3.11066631
2.733131904
2.405589369
2.12033462
1.871054139
1.652556551
1.460507241
1.29129912
1.141883533
1.009703892
0.8925810968
0.788674231
0.6964093992
0.6144468804
0.5416417436
0.4770112851
0.4197130603
0.369011517
0.3242648141
0.2848948669
0.250377806
0.2202246106
0.193978288
0.1712058362
0.1514996674
0.1344802635
0.1197967972
0.1071314649
0.09620045356
0.08675339297
0.07857153491
0.07146604978
0.06527461598
0.05985613164
0.05508153673
25.73062553
24.46885292
22.23383937
19.44782688
16.64295095
14.12386961
11.98030968
10.19350238
8.710647059
7.476934122
6.445034104
5.576608986
4.841295099
4.215132353
3.679138493
3.218167061
2.820088132
2.475068347
2.17501791
1.913297341
1.684392968
1.483706511
1.307381514
1.152170895
1.015329903
0.8945305376
0.7877926845
0.6934304945
0.6099972422
0.5362592933
0.4711467662
0.4137377281
0.3632202474
0.3188779297
0.2800639321
0.246190069
0.2167128356
0.1911313171
0.1689792984
0.1498286599
0.1332887111
0.1190061887
0.1066665237
0.09599276675
0.08674308756
0.07870809869
0.07170805343
0.06558901236
0.06021758581
0.05547225023
22.71862715
22.00738539
20.65358856
18.711947
16.49028556
14.28317499
12.2720127
10.52188901
9.030115637
7.767789265
6.700407283
5.795813639
5.026462032
4.369539209
3.806394229
3.321849701
2.903569532
2.541356082
2.226784079
1.952899035
1.713873124
1.504845818
1.321708128
1.161010859
1.019816389
0.89564188
0.7863630001
0.6901738906
0.605516844
0.5310577157
0.4656379436
0.408248531
0.358000493
0.3141029917
0.2758446495
0.2425797947
0.2137197658
0.1887282985
0.1671158526
0.1484408148
0.1323065182
0.1183603697
0.106292397
0.09583257131
0.08674681841
0.07883381896
0.07192138086
0.06586233236
0.06052934254
0.0558067972
20.41604087
19.97080455
19.12592266
17.79215104
16.10839775
14.26444723
12.4481799
10.77959576
9.306310302
8.03128813
6.937613851
6.002206349
5.202006458
4.516303277
3.927320926
3.420167915
2.982390188
2.603550964
2.274966482
1.989369982
1.740654446
1.523691442
1.334134023
1.168323069
1.023133283
0.8959158653
0.7844048808
0.6866624608
0.6010201535
0.526037059
0.4604629743
0.4032005337
0.35328463
0.3098539462
0.2721387907
0.2394441006
0.2111446607
0.1866771293
0.1655356812
0.1472705114
0.1314825305
0.1178217035
0.1059832771
0.09570388658
0.08675644282
0.07894665891
0.0721088093
0.06610147054
0.06080245727
0.05610113968
18.68459661
18.37113679
17.80571008
16.85887348
15.59215517
14.09456069
12.50629445
10.95781402
9.531575454
8.262007577
7.152938943
6.193210963
5.366103624
4.654101166
4.040960783
3.512388158
3.056000636
2.661255617
2.31927913
2.02252231
1.76462674
1.540197495
1.344663733
1.174146606
1.025340734
0.8954239382
0.781987483
0.6829576723
0.5965517335
0.5212202243
0.4556206885
0.3985692465
0.3490275725
0.3060706687
0.2688773908
0.2367115834
0.2089191723
0.1849166469
0.164187307
0.1462768849
0.1307863236
0.1173692354
0.1057262937
0.09560026604
0.0867704114
0.07904851891
0.07227435505
0.06631130689
0.06104144048
0.05635823367
17.37267051
17.12917983
16.71962326
16.00804727
15.03347984
13.82332307
12.46125518
11.056063
9.701722527
8.456137048
7.343710484
6.367064724
5.517575472
4.782155564
4.146792225
3.598124497
3.124118633
2.714297561
2.359617106
2.052309762
1.785788458
1.554400677
1.353356905
1.178559708
1.02652254
0.894248124
0.7791824343
0.6791149263
0.5921449624
0.5166182035
0.4510975384
0.3943204895
0.3451786956
0.3026922013
0.2659943161
0.2343165069
0.2069821445
0.1833931188
0.1630260043
0.1454243425
0.1301910917
0.1169840055
0.1055091111
0.09551476603
0.08678596846
0.07913979934
0.07242075735
0.06649634809
0.0612522682
0.05658548744
0.26343612
0.232207481
0.2052865945
0.182066027
0.1620184581
0.1446871189
0.12967794
0.1166530881
0.1053237464
0.0954433935
0.08680214971
0.07922172941
0.0725507227
0.06666016315
0.06143883607
0.05678667082
)
;

boundaryField
{
    front_top
    {
        type            wedge;
    }
    front_middle
    {
        type            wedge;
    }
    front_bottom
    {
        type            wedge;
    }
    back_top
    {
        type            wedge;
    }
    back_middle
    {
        type            wedge;
    }
    back_bottom
    {
        type            wedge;
    }
    axis_top
    {
        type            symmetryPlane;
    }
    axis_middle
    {
        type            symmetryPlane;
    }
    axis_bottom
    {
        type            symmetryPlane;
    }
    wall_top
    {
        type            calculated;
        value           nonuniform 0();
    }
    wall_middle
    {
        type            calculated;
        value           nonuniform List<scalar> 5(0.09059458518 0.0966118388 0.06173539355 0.08028581261 0.02376321467);
    }
    wall_bottom
    {
        type            calculated;
        value           nonuniform List<scalar> 
19
(
0.01900202378
0.04342780545
0.03638295594
0.04535009527
0.04465007812
0.04780449495
0.04841291463
0.04982739995
0.05053479309
0.05135278595
0.05193554516
0.05248737839
0.05293564192
0.05333593202
0.05367754366
0.05397884918
0.05424184447
0.05447458877
0.05468069793
)
;
    }
    inlet
    {
        type            calculated;
        value           nonuniform 0();
    }
    outlet
    {
        type            calculated;
        value           nonuniform 0();
    }
    procBoundary2to1
    {
        type            processor;
        value           nonuniform List<scalar> 
51
(
16.36406754
16.16105262
15.84234673
15.27394665
14.49462276
13.50265231
12.33955765
11.08224518
9.816577725
8.611446391
7.507826952
6.522265765
5.655489182
4.899919181
4.244437387
3.67712555
3.186600216
2.762589915
2.395953117
2.078763645
1.804200532
1.566388941
1.360313608
1.181670125
1.026781607
0.8924835104
0.7760662204
0.675189488
0.5878314726
0.5122377242
0.4468800524
0.3904227696
0.3416943147
0.2996670313
0.2996670313
0.2611555141
0.2303395208
0.2037926652
0.1809015501
0.1611372273
0.1440439683
0.1292312592
0.1163657452
0.1051634959
0.09538266326
0.08681794952
0.07929515014
0.0726664248
0.06680586666
0.06160493067
0.05696609265
)
;
    }
    procBoundary2to3
    {
        type            processor;
        value           nonuniform List<scalar> 
51
(
0.744495528
0.7519159523
0.7519159523
0.7524440086
0.7433759916
0.7332883932
0.7216296151
0.7083106077
0.6936329712
0.6778900927
0.6613302008
0.6441826981
0.6266580825
0.608947902
0.5912173976
0.5736094077
0.5562419189
0.5392130869
0.522596736
0.5064502024
0.4908093302
0.4756936347
0.4611079325
0.4470439603
0.4334782828
0.4203762206
0.4076930598
0.3953719037
0.3833439973
0.3715315616
0.3598452006
0.3481835444
0.3364384575
0.3244905426
0.3122205093
0.2995104242
0.2862638821
0.2724202124
0.2579801547
0.2430289641
0.2277444577
0.2123889647
0.1972765969
0.1827271258
0.1690223448
0.1563805375
0.1449533307
0.1348397482
0.126100866
0.1187565519
0.1127051136
)
;
    }
}


// ************************************************************************* //
