/*--------------------------------*- C++ -*----------------------------------*\
  =========                 |
  \\      /  F ield         | OpenFOAM: The Open Source CFD Toolbox
   \\    /   O peration     | Website:  https://openfoam.org
    \\  /    A nd           | Version:  7
     \\/     M anipulation  |
\*---------------------------------------------------------------------------*/
FoamFile
{
    version     2.0;
    format      ascii;
    class       volVectorField;
    location    "0.0003";
    object      grad(generalizedNewtonian:nu);
}
// * * * * * * * * * * * * * * * * * * * * * * * * * * * * * * * * * * * * * //

dimensions      [0 1 -1 0 0 0 0];

internalField   nonuniform List<vector> 
1167
(
(-637.8231334 0 -1382.146741)
(-710.7799158 8.333933657e-10 -2732.954069)
(-375.9951121 0 -2708.011805)
(-788.7566487 0 -2655.925347)
(-1537.09741 0 -2542.37194)
(-1785.440003 -5.15666669e-11 -2424.364387)
(-2087.900178 0 -2281.275433)
(-2381.599625 3.774186221e-11 -2117.800951)
(-2636.145912 0 -1939.899345)
(-2853.261171 0 -1751.125103)
(-3035.755877 0 -1554.5869)
(-3184.751925 -2.610869962e-11 -1353.272461)
(-3301.534185 0 -1149.876249)
(-3388.352016 0 -946.6130719)
(-3447.930274 0 -745.2936887)
(-3482.952964 -1.055954369e-11 -547.3255457)
(-3496.456442 -1.015474971e-11 -353.9047758)
(-3491.517159 0 -165.5726241)
(-3470.839463 0 16.948071)
(-3437.762972 0 193.6713963)
(-3395.397414 -9.011478556e-12 364.6399167)
(-3345.944241 0 529.7659015)
(-3292.457391 0 689.4965952)
(-3237.650034 0 844.2700998)
(-3183.645216 8.344416676e-12 994.2936206)
(-3133.05298 0 1140.127136)
(-3088.543361 -8.122057424e-12 1282.375226)
(-3052.554438 4.015900765e-12 1421.474373)
(-3027.686267 0 1557.997981)
(-3017.046147 0 1692.707211)
(-3023.596589 3.914626408e-12 1826.249536)
(-3050.611171 0 1959.427426)
(-3101.529924 0 2093.169296)
(-3179.388509 7.709584675e-12 2228.244373)
(-3286.645134 0 2365.39231)
(-3423.873585 0 2504.713828)
(-3587.988635 -3.827513537e-12 2645.140674)
(-3770.69466 0 2783.667008)
(-3956.487609 0 2914.332396)
(-4122.253557 -1.913392543e-12 3027.840306)
(-4241.022078 3.831683847e-12 3112.521844)
(-4288.006202 -5.758411109e-12 3156.69174)
(-4248.231142 1.924224513e-12 3152.132478)
(-4122.673317 0 3097.409945)
(-3929.367677 1.936924276e-12 2999.174355)
(-3699.148615 -1.944789343e-12 2870.622159)
(-3467.333529 -9.768090521e-13 2727.309847)
(-3264.895952 -9.816900741e-13 2582.35554)
(-3112.048704 0 2443.170674)
(-3007.671143 0 2306.531197)
(-2855.262162 0 2118.228114)
(-806.2181615 0 -4603.550357)
(-454.589833 0 -4558.896717)
(-944.0865174 0 -4495.913661)
(-1808.402268 0 -4343.91124)
(-2110.145987 0 -4184.054094)
(-2469.079201 -4.713125668e-11 -3991.905828)
(-2817.109119 0 -3773.250939)
(-3119.927922 0 -3535.676254)
(-3379.230701 0 -3284.230479)
(-3598.222249 3.04942741e-11 -3023.328535)
(-3778.369543 2.836598132e-11 -2757.145312)
(-3921.384828 2.662708457e-11 -2489.421477)
(-4029.885938 0 -2223.228767)
(-4107.261599 0 -1961.213465)
(-4156.493023 0 -1705.346112)
(-4181.4318 0 -1457.07681)
(-4185.446739 0 -1217.406953)
(-4171.801864 -1.03255863e-11 -986.9620224)
(-4144.329085 0 -765.6998564)
(-4105.737028 0 -553.6658549)
(-4059.125255 0 -350.3147622)
(-4007.388195 9.380933565e-12 -154.9781991)
(-3952.580387 9.21306501e-12 33.00375981)
(-3897.25639 0 214.5842156)
(-3843.819212 0 390.7772248)
(-3793.883864 0 562.4002363)
(-3749.711936 0 730.3811482)
(-3713.648414 -4.320648631e-12 895.7335535)
(-3687.568327 0 1059.220941)
(-3673.99553 -8.506147056e-12 1221.625989)
(-3675.464653 0 1383.785769)
(-3694.522868 4.205407431e-12 1546.31731)
(-3733.796393 -4.188066429e-12 1709.822359)
(-3795.49491 0 1874.692322)
(-3880.824747 0 2040.875923)
(-3988.631093 0 2207.513347)
(-4113.390958 -2.077608381e-12 2372.101695)
(-4243.473752 2.07750394e-12 2529.795479)
(-4359.372116 -4.157637706e-12 2672.572075)
(-4434.25617 0 2788.959348)
(-4439.740742 -2.085422171e-12 2865.953957)
(-4352.996054 -2.090587332e-12 2891.557538)
(-4162.285358 0 2857.224636)
(-3866.779846 -1.05219253e-12 2758.628397)
(-3469.896145 -1.056465059e-12 2594.214423)
(-2972.464196 0 2363.92283)
(-2373.639398 0 2070.361246)
(-1683.6364 0 1722.300925)
(-958.7783194 1.078634424e-12 1348.072233)
(-478.5056864 -1.085377095e-12 1098.748949)
(-968.9211483 -4.936315227e-10 -7375.210879)
(-588.1332874 -1.686914579e-10 -7306.509739)
(-1177.060227 0 -7225.920426)
(-2203.228617 0 -7012.413824)
(-2577.700808 6.108743687e-11 -6784.03132)
(-3015.410613 0 -6512.121653)
(-3437.3109 0 -6204.708774)
(-3803.891881 -7.968209237e-11 -5872.591087)
(-4116.413031 -3.614413238e-11 -5523.50466)
(-4378.554187 0 -5164.239492)
(-4592.177757 0 -4801.078991)
(-4759.646899 -2.903313204e-11 -4439.524131)
(-4883.889758 0 -4084.113356)
(-4969.172439 2.613921357e-11 -3738.454589)
(-5019.873214 -2.501831116e-11 -3405.211276)
(-5040.299446 1.202962429e-11 -3085.876194)
(-5035.166968 0 -2781.407364)
(-5008.871741 0 -2491.726786)
(-4966.031288 0 -2216.112716)
(-4911.157948 1.067527067e-11 -1953.304916)
(-4847.785849 0 -1701.566559)
(-4779.800687 0 -1459.014559)
(-4710.722554 0 -1223.483112)
(-4642.96133 9.885048965e-12 -993.0599103)
(-4579.331265 0 -765.9823135)
(-4521.905952 -9.621635355e-12 -540.7122192)
(-4472.382095 0 -316.1437991)
(-4432.712095 0 -91.36145127)
(-4404.170893 0 134.0588542)
(-4388.260463 -4.637385087e-12 360.4608619)
(-4386.646464 0 588.0904086)
(-4400.663642 9.17082366e-12 816.9458887)
(-4431.965332 9.13300777e-12 1047.242481)
(-4481.850399 -9.103708067e-12 1279.018649)
(-4551.249469 0 1512.294476)
(-4639.697334 -4.534188591e-12 1746.619115)
(-4743.990885 0 1980.607159)
(-4856.611193 -2.265229096e-12 2211.289244)
(-4962.680859 6.799988401e-12 2432.707678)
(-5038.896414 0 2635.207154)
(-5055.106581 0 2805.463569)
(-4981.946195 0 2928.762095)
(-4805.14486 0 2994.975012)
(-4540.447725 2.294539183e-12 3006.480013)
(-4241.108505 0 2984.340482)
(-3985.079118 0 2963.60831)
(-3830.581445 -1.162939821e-12 2966.976501)
(-3758.821122 1.169258966e-12 2966.372908)
(-3674.704586 -5.880503968e-13 2879.384793)
(-3382.083033 0 2562.16831)
(-1179.430124 0 -11403.40684)
(-766.3620348 -1.846553567e-10 -11293.7689)
(-1539.169569 1.138672091e-10 -11177.05616)
(-2828.256213 0 -10861.57262)
(-3318.523305 0 -10519.1186)
(-3875.822357 0 -10115.41171)
(-4405.835745 4.8941242e-11 -9660.98793)
(-4861.465417 0 -9171.809593)
(-5244.34588 -3.95645858e-11 -8659.466228)
(-5559.257505 0 -8134.158234)
(-5809.421432 3.385609801e-11 -7605.056748)
(-5999.031069 0 -7079.941662)
(-6133.179039 -3.005893583e-11 -6565.051671)
(-6218.032309 0 -6065.00894)
(-6261.192354 -2.73858868e-11 -5583.010492)
(-6269.858672 -2.63360646e-11 -5120.993041)
(-6250.865708 0 -4680.003767)
(-6211.686829 -2.464812055e-11 -4260.040445)
(-6158.845786 -1.198316389e-11 -3861.022987)
(-6098.588103 0 -3482.565341)
(-6035.984044 0 -3124.422615)
(-5974.826205 0 -2786.691864)
(-5918.358201 -1.099621504e-11 -2469.559943)
(-5867.942745 0 -2173.744059)
(-5824.596937 0 -1899.43205)
(-5788.345911 0 -1647.004246)
(-5758.673899 0 -1415.920802)
(-5735.305282 0 -1204.970985)
(-5717.842104 5.113328568e-12 -1011.940587)
(-5706.852343 0 -833.3663267)
(-5703.012123 0 -664.8516775)
(-5708.106764 -5.019346415e-12 -500.9216034)
(-5724.393744 -4.998649078e-12 -335.338498)
(-5754.022683 -4.982612888e-12 -161.8513688)
(-5799.155322 4.970916034e-12 25.72299383)
(-5860.824293 0 232.3726265)
(-5937.803794 2.479720755e-12 461.3853988)
(-6025.128624 0 713.3139932)
(-6111.837789 -2.481165548e-12 985.2994148)
(-6177.940044 -2.484341679e-12 1269.851601)
(-6192.099083 2.489046886e-12 1553.992298)
(-6111.989301 -2.495211752e-12 1818.509176)
(-5893.029222 1.251387238e-12 2039.81044)
(-5501.450556 0 2193.741027)
(-4915.466225 1.260939488e-12 2254.128729)
(-4096.129472 -1.266663703e-12 2174.941558)
(-2948.674885 6.364965666e-13 1874.176164)
(-1345.014781 0 1272.562837)
(735.6583026 -6.436997928e-13 375.1610057)
(2057.842949 1.943170914e-12 -155.8851807)
(-1548.543091 -1.188036878e-09 -17935.0566)
(-1102.316334 0 -17751.09088)
(-2147.731272 0 -17536.86174)
(-3833.724495 0 -17001.30821)
(-4503.290032 0 -16415.52941)
(-5249.097008 -1.23681951e-10 -15732.7066)
(-5950.443609 0 -14974.47016)
(-6547.340531 -9.5886567e-11 -14170.61637)
(-7042.799532 0 -13343.17703)
(-7443.351811 0 -12510.76369)
(-7754.463953 3.721903636e-11 -11689.56788)
(-7983.06179 0 -10892.77065)
(-8137.435777 -6.608940136e-11 -10130.65613)
(-8226.574068 0 -9411.03684)
(-8259.53154 3.010613677e-11 -8740.024581)
(-8245.075884 2.895203535e-11 -8122.808675)
(-8191.3309 0 -7563.660678)
(-8103.881049 0 -7067.148143)
(-7986.984563 0 -6638.281595)
(-7844.649251 0 -6281.449744)
(-7678.829089 1.255982212e-11 -6000.770216)
(-7491.930543 0 -5798.8214)
(-7286.548328 -1.208847299e-11 -5675.765218)
(-7067.019732 1.189531293e-11 -5628.706621)
(-6839.041983 1.172613879e-11 -5650.970484)
(-6610.261179 0 -5732.502025)
(-6390.417802 0 -5859.528127)
(-6189.978921 0 -6016.147749)
(-6020.458136 0 -6184.560884)
(-5893.397965 -5.580462636e-12 -6346.249893)
(-5819.685467 0 -6482.24391)
(-5808.515606 1.65537596e-11 -6573.41067)
(-5866.755143 0 -6599.997267)
(-5997.799919 0 -6541.660214)
(-6200.758622 -5.464678881e-12 -6377.829195)
(-6470.160217 -5.456279677e-12 -6089.521745)
(-6796.192047 0 -5661.916527)
(-7165.829601 -5.451790542e-12 -5087.720859)
(-7563.916857 -5.455241304e-12 -4370.775143)
(-7973.211322 0 -3528.411956)
(-8370.728999 -2.736284784e-12 -2590.62261)
(-8718.382758 -5.486124074e-12 -1593.447289)
(-8961.643896 0 -565.6529939)
(-9041.703782 1.380583009e-12 477.327173)
(-8904.78423 0 1508.000317)
(-8541.422038 -1.392481866e-12 2468.878688)
(-8144.244691 0 3375.420525)
(-8035.951119 0 4366.005306)
(-7827.427247 0 5242.045207)
(-6219.980203 7.120622586e-13 5209.695686)
(-1983.180991 0 -27188.15189)
(-1620.219493 0 -26872.81057)
(-3141.065356 0 -26653.56462)
(-5372.511377 1.621145429e-10 -26034.01003)
(-6297.600324 -1.296415651e-10 -25331.404)
(-7294.953582 0 -24531.20245)
(-8190.955522 -9.488521138e-11 -23658.81281)
(-8915.393765 0 -22750.31326)
(-9479.480181 0 -21837.05738)
(-9896.301207 0 -20944.45619)
(-10177.46964 0 -20094.60034)
(-10336.66203 -6.161497134e-11 -19306.37595)
(-10387.84477 0 -18596.25579)
(-10343.78271 0 -17979.32141)
(-10215.0837 0 -17469.91525)
(-10010.59838 5.105924881e-11 -17080.74928)
(-9737.225081 4.930578596e-11 -16822.48953)
(-9399.028702 0 -16701.82477)
(-9000.715481 0 -16718.5567)
(-8550.232594 0 -16861.92765)
(-8057.144557 0 -17109.09868)
(-7535.829873 0 -17421.74354)
(-7004.681883 0 -17746.18143)
(-6485.044533 0 -18013.64935)
(-5999.80208 0 -18144.63772)
(-5571.016481 0 -18055.90406)
(-5218.261737 -1.009620547e-11 -17671.27487)
(-4956.759146 0 -16934.842)
(-4797.983059 -1.982701098e-11 -15824.40473)
(-4751.838565 0 -14360.76363)
(-4829.614082 0 -12609.40814)
(-5048.233755 0 -10671.03087)
(-5431.683948 0 -8663.280832)
(-6008.031903 0 -6698.681961)
(-6800.456736 0 -4867.957561)
(-7813.685967 0 -3231.885004)
(-9020.944695 0 -1822.78602)
(-10352.94208 0 -650.4251093)
(-11699.33739 0 290.8297575)
(-12936.0757 0 1017.184886)
(-13992.16349 0 1551.294008)
(-14914.38617 0 1915.81745)
(-15827.39099 0 2123.765329)
(-16718.05119 0 2171.645534)
(-17211.08319 0 2049.754095)
(-16758.12903 0 1767.184553)
(-15299.49261 0 1350.393136)
(-13314.82507 1.240717983e-12 786.7512093)
(-10683.00921 0 36.86884362)
(-6938.842098 0 -780.2156976)
(-2496.342029 0 -37957.10911)
(-2167.182629 0 -37464.29595)
(-4012.402893 0 -37023.30398)
(-6678.747202 0 -35994.16602)
(-7797.592081 0 -34816.67354)
(-8982.173483 0 -33501.31502)
(-10004.0738 0 -32102.39007)
(-10783.13094 0 -30683.53239)
(-11337.90833 0 -29300.66925)
(-11688.50149 0 -28000.80034)
(-11849.78768 0 -26823.48982)
(-11837.21785 0 -25802.38877)
(-11664.25668 0 -24965.26575)
(-11341.48899 -5.547341208e-11 -24332.3048)
(-10879.82138 0 -23912.11678)
(-10292.61093 2.552962441e-11 -23697.46856)
(-9598.118598 0 -23660.56913)
(-8824.095823 0 -23749.03285)
(-8014.796984 0 -23882.08651)
(-7230.525532 0 -23954.35043)
(-6546.751949 0 -23843.78394)
(-6053.750781 0 -23424.4489)
(-5848.065458 0 -22589.04322)
(-6022.510754 0 -21267.27774)
(-6646.993227 0 -19445.71281)
(-7748.355487 0 -17171.55898)
(-9288.855693 0 -14546.37269)
(-11151.19375 0 -11703.38774)
(-13142.97384 0 -8783.969112)
(-15024.08411 -1.968319149e-11 -5914.333996)
(-16558.74235 0 -3195.680319)
(-17576.84983 0 -701.2996027)
(-18019.19612 0 1517.793339)
(-17941.50644 0 3428.150988)
(-17478.27662 0 5008.419293)
(-16787.83848 0 6247.900396)
(-16005.65042 0 7145.831375)
(-15221.72194 0 7712.951658)
(-14482.12211 0 7973.055059)
(-13803.21594 0 7963.105093)
(-13177.7708 0 7725.68535)
(-12561.33588 0 7289.921519)
(-11854.19943 0 6650.651429)
(-10924.261 0 5773.417629)
(-9678.393126 0 4647.517972)
(-8106.008607 -1.227877028e-12 3355.259792)
(-6254.508226 0 2062.395875)
(-4229.210835 0 896.0527774)
(-2244.471195 0 -90.87970713)
(-888.1077613 0 -756.9577287)
(-3242.384482 0 -53598.16116)
(-3247.475315 0 -52838.15015)
(-5858.512492 0 -52019.20938)
(-9334.026888 0 -50329.13078)
(-10843.9195 0 -48409.06333)
(-12325.03209 0 -46329.98464)
(-13501.59272 0 -44206.07493)
(-14288.98943 0 -42156.66918)
(-14717.47119 0 -40282.49418)
(-14820.693 0 -38663.34006)
(-14626.97169 0 -37354.30264)
(-14165.38398 0 -36380.91132)
(-13470.50598 0 -35731.67923)
(-12589.94762 -5.547341208e-11 -35348.86466)
(-11590.09687 0 -35120.534)
(-10559.99025 5.105924881e-11 -34879.75346)
(-9612.616183 0 -34413.4203)
(-8884.100418 0 -33485.83317)
(-8520.419096 0 -31879.7315)
(-8652.50403 0 -29451.43467)
(-9370.431022 0 -26175.36646)
(-10685.60081 0 -22168.39171)
(-12508.37501 0 -17670.38995)
(-14643.76601 0 -12990.78385)
(-16819.57341 0 -8444.074125)
(-18747.15722 0 -4297.339235)
(-20192.05666 0 -744.2829045)
(-21025.75106 0 2101.684462)
(-21239.24666 0 4203.058433)
(-20917.12643 -1.968319149e-11 5589.933885)
(-20189.79503 0 6348.290366)
(-19194.99967 0 6601.832643)
(-18056.22324 0 6489.738232)
(-16877.61571 0 6143.107146)
(-15743.08015 0 5669.072909)
(-14716.16407 0 5143.645652)
(-13836.58669 0 4614.406175)
(-13117.2409 0 4106.378466)
(-12541.85018 0 3628.464874)
(-12061.05364 0 3176.647984)
(-11588.61593 0 2736.034647)
(-11009.85719 0 2285.532127)
(-10218.30794 0 1809.521014)
(-9172.983756 0 1312.440819)
(-7938.314803 0 823.3886585)
(-6667.815311 0 385.3398201)
(-5526.494522 0 41.10219486)
(-4599.858845 0 -173.1866746)
(-3876.684727 0 -237.7361016)
(-3226.079123 0 -160.8681905)
(-4438.271749 0 -78388.22421)
(-4967.714387 0 -77169.15253)
(-8618.836451 0 -75721.99495)
(-13157.6969 0 -73039.49547)
(-15082.02194 0 -70107.93285)
(-16760.7051 0 -67127.3504)
(-17858.23145 0 -64321.57442)
(-18296.29461 0 -61883.84473)
(-18145.52907 0 -59924.25407)
(-17495.85851 0 -58460.01325)
(-16455.9545 0 -57404.41704)
(-15168.57668 0 -56560.0329)
(-13819.83329 0 -55625.29949)
(-12642.87987 -5.547341208e-11 -54223.91745)
(-11906.42645 0 -51966.93764)
(-11882.00343 5.105924881e-11 -48545.74367)
(-12790.02213 0 -43831.4783)
(-14723.69411 0 -37938.29461)
(-17568.42914 0 -31215.02072)
(-20973.1448 0 -24154.56317)
(-24401.86566 0 -17269.02841)
(-27276.43166 0 -10991.19469)
(-29161.44851 0 -5618.27918)
(-29884.60362 0 -1307.743292)
(-29540.72692 0 1912.457086)
(-28395.82573 0 4116.163476)
(-26761.47987 0 5451.770174)
(-24905.26239 0 6104.612041)
(-23014.4277 0 6266.34514)
(-21200.19974 -9.841595743e-12 6106.809099)
(-19516.55858 0 5762.261938)
(-17983.00732 0 5331.662945)
(-16602.95784 0 4881.575807)
(-15375.45572 0 4452.015266)
(-14299.68235 0 4062.743264)
(-13373.0308 0 3718.347234)
(-12585.09835 0 3412.249262)
(-11909.57085 0 3130.038977)
(-11299.72097 0 2852.006187)
(-10690.09757 0 2556.579231)
(-10009.45275 0 2225.945867)
(-9204.19307 0 1854.124001)
(-8262.067775 0 1453.504205)
(-7216.882483 0 1053.031245)
(-6129.515001 0 686.771044)
(-5057.702553 -1.227877028e-12 378.1926317)
(-4040.472334 0 130.9316188)
(-3107.691709 0 -67.50229603)
(-2303.249032 0 -231.4143522)
(-1755.144828 0 -367.1568084)
(-6357.275537 0 -119709.8293)
(-8019.496634 1.432008002e-09 -117643.7544)
(-13393.45644 0 -114954.0714)
(-19389.96305 0 -110636.9107)
(-21585.97826 0 -106302.6444)
(-23004.84941 2.181230935e-10 -102342.7351)
(-23340.20528 -1.897704228e-10 -98985.48098)
(-22681.95357 0 -96223.91904)
(-21367.8687 0 -93766.29978)
(-19806.50698 1.411272662e-10 -91084.71924)
(-18466.58084 -1.312775434e-10 -87508.03066)
(-17850.55241 0 -82373.7288)
(-18424.13379 0 -75232.29841)
(-20498.71044 0 -66037.41763)
(-24081.25124 0 -55221.39352)
(-28765.38412 5.105924881e-11 -43590.29189)
(-33761.72774 9.861157192e-11 -32083.29394)
(-38111.13624 4.778673421e-11 -21538.7865)
(-41018.6867 0 -12554.15972)
(-42123.54522 0 -5441.53093)
(-41534.75328 0 -251.9938165)
(-39671.76732 0 3178.553145)
(-37039.04064 0 5159.785706)
(-34068.14689 0 6064.183695)
(-31062.57933 0 6250.447952)
(-28206.80297 0 6012.060296)
(-25597.39144 0 5559.550072)
(-23271.22068 0 5027.877039)
(-21228.87908 0 4494.925592)
(-19448.72095 0 4001.286922)
(-17899.68598 0 3564.118173)
(-16548.10879 0 3188.387155)
(-15364.64157 0 2871.340923)
(-14325.91223 0 2606.60371)
(-13414.0493 9.637401741e-12 2384.240052)
(-12612.09057 0 2192.091683)
(-11897.1621 0 2015.440868)
(-11234.49877 -4.807336091e-12 1838.646658)
(-10577.18833 0 1646.964073)
(-9874.868173 0 1430.500504)
(-9089.308414 0 1187.656425)
(-8210.581018 2.418805546e-12 927.4125096)
(-7262.037644 0 666.7237325)
(-6291.94479 0 424.8583711)
(-5356.193797 -1.222328066e-12 217.4085564)
(-4501.605263 0 53.69192996)
(-3756.709048 0 -62.15532859)
(-3133.574161 0 -129.5243054)
(-2641.167268 0 -151.4618242)
(-2271.762599 0 -136.3778983)
(-9717.36928 0 -197178.6836)
(-13552.1117 0 -193855.6159)
(-21292.76593 -8.830437264e-10 -189305.4883)
(-28588.85681 0 -182876.0882)
(-30088.05816 0 -176615.7278)
(-30218.99527 0 -170377.0717)
(-29321.27675 0 -163421.9196)
(-28283.49241 0 -154633.1124)
(-28213.73661 -1.534122932e-10 -142901.5914)
(-30035.86305 1.411272662e-10 -127628.3753)
(-34254.59181 0 -109117.8347)
(-40696.80268 0 -88589.3812)
(-48376.19655 0 -67773.10218)
(-55699.42404 -1.109468242e-10 -48349.49441)
(-61043.88766 0 -31559.7484)
(-63424.03252 1.021184976e-10 -18079.33119)
(-62786.97618 0 -8064.180445)
(-59797.16848 0 -1256.769871)
(-55391.00016 0 2886.672717)
(-50399.11969 0 5042.217407)
(-45389.2927 0 5865.465392)
(-40684.27154 0 5895.576278)
(-36430.45608 0 5515.328921)
(-32667.88976 0 4969.872016)
(-29380.87248 0 4398.305566)
(-26529.10428 0 3872.38657)
(-24064.35214 0 3420.288636)
(-21937.12569 0 3047.773859)
(-20100.42546 0 2747.704103)
(-18509.26038 -9.841595743e-12 2508.925531)
(-17122.71528 -9.781168704e-12 2318.800334)
(-15904.68007 0 2165.754213)
(-14824.78506 0 2039.458117)
(-13858.46519 -9.660079362e-12 1930.29677)
(-12984.06359 0 1828.975573)
(-12179.7999 0 1725.56951)
(-11419.17555 0 1610.123013)
(-10670.3572 0 1473.497275)
(-9900.772229 0 1310.25777)
(-9086.178906 0 1120.883997)
(-8220.124594 0 913.1521637)
(-7317.376104 0 700.4831426)
(-6408.494796 0 498.0443262)
(-5529.330884 0 318.5695078)
(-4709.979414 0 169.4338693)
(-3969.12006 0 52.28424076)
(-3314.513239 0 -35.60679983)
(-2748.350561 0 -99.17503883)
(-2277.028542 0 -144.0470541)
(-1933.335489 0 -176.5560062)
(-14848.15758 8.380795319e-09 -369558.2875)
(-22296.17465 0 -363227.3755)
(-33094.61612 8.830437264e-10 -350471.2028)
(-41989.53695 0 -332094.6836)
(-44277.92246 5.185662604e-10 -308283.1327)
(-47493.61034 0 -277636.9539)
(-53198.63055 0 -240166.6166)
(-62350.43476 0 -197903.6039)
(-74482.83562 0 -154442.6962)
(-87369.42146 0 -113552.6301)
(-97849.71957 0 -78003.76171)
(-103357.6497 0 -49240.96302)
(-103095.8051 1.165539884e-10 -27591.16248)
(-98046.6202 -1.109468242e-10 -12561.03248)
(-90060.80046 0 -3089.159323)
(-80896.39551 0 2184.517098)
(-71753.98728 0 4620.57702)
(-63280.59004 0 5350.474372)
(-55746.74363 0 5185.382694)
(-49199.72089 0 4631.977042)
(-43578.09602 0 3974.032148)
(-38776.73526 -2.170744419e-11 3352.976608)
(-34679.59543 0 2827.084989)
(-31176.92763 0 2411.617847)
(-28172.15219 0 2099.722648)
(-25584.10628 0 1876.345113)
(-23345.17312 0 1723.252413)
(-21399.87953 0 1622.64714)
(-19701.44612 0 1558.680684)
(-18209.93841 -9.841595743e-12 1517.718941)
(-16889.68173 0 1489.196819)
(-15710.2427 0 1464.243983)
(-14644.77792 0 1436.391281)
(-13669.86224 0 1399.617157)
(-12763.38904 0 1348.727189)
(-11902.90678 0 1278.598185)
(-11064.54907 0 1185.195685)
(-10225.27632 0 1066.628159)
(-9368.335403 -2.405189498e-12 924.9276331)
(-8488.394916 0 766.4790459)
(-7594.579765 2.412829394e-12 601.4194471)
(-6707.623536 0 441.028892)
(-5853.88645 -1.213068337e-12 295.2643716)
(-5058.017807 0 170.8582439)
(-4337.812051 -1.222328066e-12 70.89365006)
(-3702.886149 -1.227877028e-12 -4.439611053)
(-3155.713373 0 -56.71416865)
(-2695.219692 0 -88.41002357)
(-2322.399786 0 -102.5922205)
(-2038.799173 0 -103.3758716)
(-25893.69558 0 -753804.1395)
(-49317.814 0 -716452.5922)
(-77224.74388 -1.766087453e-09 -628167.5275)
(-104791.0655 0 -520018.7618)
(-129957.4932 0 -404790.7039)
(-157032.9005 0 -297267.9868)
(-180050.3215 0 -206178.3625)
(-192921.9629 0 -134193.5022)
(-192911.0852 0 -80645.96698)
(-181860.6617 0 -43399.95392)
(-164247.9881 0 -19565.41834)
(-144413.158 0 -5849.230017)
(-125185.4006 0 999.4085826)
(-107917.0194 -1.109468242e-10 3711.709814)
(-93018.71408 0 4241.683512)
(-80424.50888 1.021184976e-10 3796.814737)
(-69870.50357 0 3033.7382)
(-61050.75672 0 2271.67894)
(-53675.65093 0 1642.234941)
(-47485.06505 0 1178.438085)
(-42262.86174 0 871.7117569)
(-37831.08774 0 694.5240561)
(-34046.13871 0 617.2867508)
(-30791.67715 0 611.6325876)
(-27974.63929 0 654.499564)
(-25521.74153 0 726.6490678)
(-23372.90176 0 813.9312103)
(-21480.21701 0 904.5227554)
(-19803.56561 0 990.1960656)
(-18308.80836 -9.841595743e-12 1064.079504)
(-16965.21687 0 1121.595757)
(-15745.88467 0 1159.120148)
(-14626.50095 0 1174.071495)
(-13584.33164 0 1164.440499)
(-12598.51505 0 1128.557139)
(-11649.14419 0 1065.749284)
(-10718.64176 0 976.6653697)
(-9794.400785 0 864.5523513)
(-8872.067818 0 735.3697668)
(-7957.105328 0 597.5309341)
(-7063.439951 -2.412829394e-12 460.3690945)
(-6209.27377 0 332.3134579)
(-5412.623707 0 219.6061784)
(-4687.022957 0 125.5642773)
(-4039.763818 1.222328066e-12 50.91029382)
(-3472.299156 0 -5.556705092)
(-2981.706349 0 -46.1519355)
(-2563.428291 0 -73.71843687)
(-2215.994024 0 -91.33971437)
(-1948.962658 0 -102.42543)
(-110286.3531 0 -1015498.42)
(-260607.4469 0 -847795.8522)
(-382315.597 0 -609560.3919)
(-441599.0195 0 -401665.0502)
(-447623.8053 0 -244087.761)
(-412787.4922 0 -135649.2576)
(-358355.1557 7.590816911e-10 -67215.18863)
(-301483.6055 0 -28189.80786)
(-250557.7291 0 -8623.304801)
(-207936.3436 0 -439.8544246)
(-173276.1935 0 1933.480052)
(-145377.4036 0 1783.415941)
(-122949.2915 0 799.7648455)
(-104860.0833 -2.218936483e-10 -251.7852784)
(-90184.36724 0 -1079.998113)
(-78185.4402 1.021184976e-10 -1616.300493)
(-68292.12192 0 -1885.592825)
(-60070.2468 0 -1939.279456)
(-53180.24931 4.646490293e-11 -1836.441022)
(-47358.7463 4.531075074e-11 -1629.368606)
(-42401.61274 0 -1359.0988)
(-38148.1291 0 -1058.492413)
(-34472.98294 2.131899682e-11 -749.6175888)
(-31275.79057 0 -449.4127037)
(-28476.87102 -2.067999104e-11 -167.83128)
(-26013.07176 0 87.71398817)
(-23832.05753 0 313.5705916)
(-21891.0337 0 507.1802547)
(-20154.0584 0 667.3871172)
(-18589.37859 0 793.7474367)
(-17168.90013 9.781168704e-12 886.1357717)
(-15866.73742 0 945.1692667)
(-14659.7996 0 971.3065858)
(-13526.56072 4.830039681e-12 965.8194054)
(-12448.3942 0 930.1369014)
(-11409.78094 0 867.0775871)
(-10399.6634 0 780.6539205)
(-9413.401202 0 676.8659563)
(-8453.496156 0 562.9586713)
(-7528.947697 0 446.9120673)
(-6652.248373 0 335.9652244)
(-5836.406841 1.209402773e-12 235.7599695)
(-5091.91611 0 149.8295693)
(-4424.772658 0 79.55950963)
(-3836.484871 0 24.70939323)
(-3324.898602 -1.227877028e-12 -16.00748357)
(-2885.359936 0 -44.39906797)
(-2512.674087 0 -62.45005494)
(-2204.25178 -6.239889687e-13 -72.17987382)
(-1961.747009 0 -75.82864172)
(-454396.1696 0 -555808.7239)
(-787847.612 0 -379552.5079)
(-852529.6566 0 -207013.5841)
(-747576.5373 2.593832687e-09 -90833.88181)
(-605873.1974 -1.037132521e-09 -32286.0349)
(-479223.1624 0 -9043.628117)
(-379319.6626 -7.590816911e-10 -2524.048889)
(-303483.0829 0 -2457.119663)
(-246157.9234 3.068245864e-10 -4215.875489)
(-202411.2285 0 -5996.091417)
(-168565.3128 -2.625550867e-10 -7231.976814)
(-142008.236 -2.464598854e-10 -7849.330855)
(-120893.3749 0 -7943.661812)
(-103897.4293 0 -7650.504982)
(-90053.6507 0 -7098.266918)
(-78646.28843 0 -6393.421581)
(-69150.37538 1.479173579e-10 -5612.661222)
(-61173.63746 0 -4810.801968)
(-54411.89651 0 -4027.990783)
(-48634.61276 0 -3287.952759)
(-43660.92685 0 -2606.039433)
(-39350.46988 0 -1989.859451)
(-35592.23261 0 -1442.096884)
(-32295.80875 0 -962.374297)
(-29389.06445 0 -548.172697)
(-26813.04062 0 -195.8820987)
(-24518.99595 -1.009620547e-11 98.27841952)
(-22464.88987 0 338.6230638)
(-20615.81145 -9.913505491e-12 528.5663494)
(-18940.13768 0 671.9314516)
(-17409.99929 0 771.6177195)
(-16000.076 0 830.9846123)
(-14688.08559 0 853.0758964)
(-13454.37735 0 841.4356415)
(-12283.33609 0 800.1544937)
(-11163.96756 0 734.243681)
(-10090.28715 0 649.7512494)
(-9062.207338 0 553.554709)
(-8084.502983 0 452.7433779)
(-7165.388501 0 353.9429263)
(-6313.389981 0 262.4152864)
(-5535.857397 1.209402773e-12 181.7690697)
(-4837.033053 -1.213068337e-12 113.8252572)
(-4217.406862 0 58.90053073)
(-3674.421125 0 16.24657937)
(-3203.227388 0 -15.51359039)
(-2797.579332 0 -38.0737917)
(-2451.324395 6.203589913e-13 -53.19952321)
(-2161.102443 0 -62.6563684)
(-1930.091466 0 -68.27255312)
(-560644.5417 0 21359.29357)
(-873653.474 0 29190.13199)
(-875385.6198 0 13592.96492)
(-742925.5099 0 219.2476036)
(-591031.5144 0 -10404.1195)
(-465773.3813 0 -17112.58957)
(-370066.7828 0 -20482.88076)
(-298059.4048 0 -21556.74676)
(-243636.3171 0 -21218.74301)
(-201973.1529 0 -20046.46633)
(-169562.8668 0 -18405.99376)
(-143944.0451 0 -16536.64235)
(-123395.0542 0 -14596.69172)
(-106691.7706 -1.109468242e-10 -12690.18443)
(-92943.02332 0 -10884.61497)
(-81499.95733 1.021184976e-10 -9216.304864)
(-71885.80472 0 -7700.487969)
(-63734.0098 0 -6343.625338)
(-56766.1071 0 -5144.273937)
(-50769.22344 0 -4093.554511)
(-45573.14532 0 -3182.30516)
(-41045.13041 0 -2397.609892)
(-37078.27828 0 -1728.411968)
(-33584.943 0 -1162.318349)
(-30493.9788 0 -689.0271629)
(-27746.13576 0 -297.9516307)
(-25291.80506 0 19.11830954)
(-23088.01929 0 270.4893089)
(-21098.4147 0 462.6577096)
(-19290.542 -9.841595743e-12 601.7882711)
(-17635.82672 0 693.2501324)
(-16109.5495 0 742.0969206)
(-14690.05599 0 753.5024244)
(-13359.98368 0 732.6444046)
(-12106.50523 0 685.4735723)
(-10921.87202 0 618.1641739)
(-9803.014767 0 537.5291972)
(-8751.023788 0 450.1738268)
(-7770.051557 0 362.2825423)
(-6865.271123 0 278.8941371)
(-6040.768143 0 203.6095366)
(-5298.895425 0 138.5911088)
(-4639.189309 0 84.60406726)
(-4058.541815 0 41.40832228)
(-3552.001384 0 8.099926185)
(-3113.377178 0 -16.56117056)
(-2735.896974 0 -33.95709058)
(-2413.381921 0 -45.4373488)
(-2142.239344 0 -52.28469836)
(-1923.502286 0 -55.81001103)
(-474405.0084 0 237944.7592)
(-766330.4292 0 133563.9959)
(-802242.6646 0 41680.71605)
(-705272.3755 0 -8594.28347)
(-574968.767 0 -29743.2472)
(-460993.8889 0 -36770.33836)
(-371195.2136 0 -37419.94931)
(-302207.8679 0 -35225.60809)
(-249184.947 0 -31871.192)
(-208052.6982 0 -28174.91484)
(-175705.9624 0 -24520.06232)
(-149889.6584 0 -21084.5181)
(-128993.9119 0 -17946.5173)
(-111857.7909 -1.109468242e-10 -15135.62154)
(-97641.18582 0 -12651.66166)
(-85730.78761 1.021184976e-10 -10475.19697)
(-75661.52138 0 -8582.523937)
(-67076.15475 0 -6949.827382)
(-59705.23023 0 -5548.695039)
(-53336.94948 0 -4352.978182)
(-47802.24274 0 -3338.887978)
(-42967.50349 0 -2483.477693)
(-38723.29277 0 -1767.648275)
(-34979.82243 0 -1173.220569)
(-31663.08381 0 -685.285201)
(-28710.95825 0 -290.1413781)
(-26070.98137 0 23.46524793)
(-23698.36252 0 265.5675901)
(-21554.12603 0 444.9135377)
(-19605.03795 -9.841595743e-12 568.9263852)
(-17821.53563 0 644.8001508)
(-16179.16968 0 678.8292592)
(-14657.49192 0 677.6695512)
(-13240.85445 0 647.6839327)
(-11918.51905 0 595.7378556)
(-10684.29116 0 528.4606436)
(-9535.786047 0 452.48112)
(-8473.180918 0 373.6463938)
(-7498.208893 0 296.9767798)
(-6612.20078 0 226.1205114)
(-5815.17374 0 163.4316419)
(-5105.411103 0 110.0941779)
(-4478.975496 0 66.25845279)
(-3930.287011 0 31.39717742)
(-3452.813799 0 4.57197873)
(-3039.466758 -1.227877028e-12 -15.34434869)
(-2683.068051 0 -29.53890624)
(-2377.319418 0 -39.14576874)
(-2118.46598 0 -45.23333648)
(-1907.678913 0 -48.86428266)
(-293937.7411 0 348299.1906)
(-532179.6258 0 225720.4262)
(-635884.0125 0 98198.96837)
(-620743.0108 0 16859.54214)
(-541911.9736 0 -21901.90849)
(-452360.1562 0 -36648.16724)
(-373284.0641 0 -40039.258)
(-308821.2495 0 -38469.83048)
(-257452.404 0 -34891.2121)
(-216613.0134 0 -30681.09284)
(-183935.5115 0 -26472.89856)
(-157514.0785 0 -22543.33653)
(-135904.1383 0 -19000.16123)
(-118034.14 -1.109468242e-10 -15869.76982)
(-103114.2589 0 -13137.38278)
(-90548.03445 0 -10773.00515)
(-79872.40681 0 -8743.428967)
(-70736.75603 0 -7012.957299)
(-62873.29447 0 -5543.728896)
(-56064.18046 0 -4303.944964)
(-50137.20236 0 -3263.109924)
(-44953.29478 0 -2395.241867)
(-40398.7018 0 -1676.981968)
(-36379.41387 0 -1088.469985)
(-32816.76258 0 -612.0264754)
(-29645.28278 0 -232.9262271)
(-26808.64947 0 62.0692636)
(-24259.71963 0 283.7770119)
(-21957.24643 0 442.4191457)
(-19866.55231 -9.841595743e-12 546.3785622)
(-17957.74491 0 603.9492287)
(-16206.49122 0 622.5712864)
(-14593.23653 0 609.6679882)
(-13103.32457 0 572.382095)
(-11726.86423 0 517.716002)
(-10457.61135 0 452.2164463)
(-9292.178251 0 381.7960859)
(-8228.491206 0 311.3382592)
(-7265.168373 0 244.7060182)
(-6399.758368 0 184.4394266)
(-5628.803965 0 132.0072308)
(-4947.443375 0 87.92704748)
(-4349.252873 0 51.99836726)
(-3827.036063 0 23.56962759)
(-3373.313185 0 1.75406665)
(-2980.547685 0 -14.4391159)