/*--------------------------------*- C++ -*----------------------------------*\
  =========                 |
  \\      /  F ield         | OpenFOAM: The Open Source CFD Toolbox
   \\    /   O peration     | Website:  https://openfoam.org
    \\  /    A nd           | Version:  7
     \\/     M anipulation  |
\*---------------------------------------------------------------------------*/
FoamFile
{
    version     2.0;
    format      ascii;
    class       surfaceScalarField;
    location    "0.0003";
    object      phi;
}
// * * * * * * * * * * * * * * * * * * * * * * * * * * * * * * * * * * * * * //

dimensions      [1 0 -1 0 0 0 0];

internalField   nonuniform List<scalar> 
2259
(
7.469408165e-11
2.670745501e-12
7.202333616e-11
1.045229735e-11
2.106142814e-10
2.295832788e-11
3.410196044e-10
3.975912363e-11
4.633170794e-10
6.039246666e-11
5.776170847e-10
8.43720858e-11
6.840558708e-10
1.111943086e-10
7.827878076e-10
1.40343844e-10
8.739815493e-10
1.712990191e-10
9.578159769e-10
2.035362691e-10
1.034476465e-09
2.365342281e-10
1.104151998e-09
2.697774988e-10
1.167032639e-09
3.027602703e-10
1.223307807e-09
3.349897725e-10
1.273164381e-09
3.659899697e-10
1.316785762e-09
3.953049574e-10
1.354351338e-09
4.225033457e-10
1.386035528e-09
4.471816515e-10
1.412008526e-09
4.68969407e-10
1.432435797e-09
4.875332514e-10
1.447478604e-09
5.025817659e-10
1.457295026e-09
5.138705917e-10
1.462040405e-09
5.212072548e-10
1.461867927e-09
5.244554541e-10
1.456930348e-09
5.23539941e-10
1.447379857e-09
5.184499144e-10
1.433369547e-09
5.092416537e-10
1.415053766e-09
4.960404047e-10
1.39258811e-09
4.79040621e-10
1.366129809e-09
4.585042472e-10
1.335836572e-09
4.347575574e-10
1.301865485e-09
4.081860684e-10
1.26437035e-09
3.792267145e-10
1.223498622e-09
3.48359057e-10
1.1793861e-09
3.160942878e-10
1.132150871e-09
2.829642369e-10
1.081885055e-09
2.495102478e-10
1.028646075e-09
2.162741061e-10
9.724475008e-10
1.83793007e-10
9.132520873e-10
1.525980158e-10
8.50971209e-10
1.232159082e-10
7.854732182e-10
9.61700994e-11
7.166045419e-10
7.197516901e-11
6.442229587e-10
5.11166374e-11
5.682393175e-10
3.400633475e-11
4.886624551e-10
2.089953669e-11
4.056431697e-10
1.175366972e-11
3.195213371e-10
6.00477109e-12
2.308883039e-10
2.254837235e-12
1.406542867e-10
4.868738705e-11
3.237434416e-12
6.878590177e-11
1.268296382e-11
2.011687521e-10
2.789333315e-11
3.258092352e-10
4.838659763e-11
4.42823815e-10
7.365235129e-11
5.523513311e-10
1.031594679e-10
6.545487541e-10
1.363616654e-10
7.4958561e-10
1.727026216e-10
8.376405932e-10
2.116202616e-10
9.18898337e-10
2.525503284e-10
9.935463978e-10
2.949294693e-10
1.061772857e-09
3.381978822e-10
1.123764226e-09
3.818017873e-10
1.179703901e-09
4.251953739e-10
1.229770794e-09
4.678431836e-10
1.274137952e-09
5.092220543e-10
1.312972467e-09
5.488234376e-10
1.346434144e-09
5.861558369e-10
1.374676126e-09
6.207476371e-10
1.397843997e-09
6.521500747e-10
1.416076166e-09
6.799410909e-10
1.42950401e-09
7.037292847e-10
1.438252211e-09
7.231585195e-10
1.442438693e-09
7.379131992e-10
1.442175669e-09
7.47723627e-10
1.43756943e-09
7.523723086e-10
1.428720865e-09
7.516997712e-10
1.415726302e-09
7.45610733e-10
1.398677148e-09
7.340804337e-10
1.377660108e-09
7.171593071e-10
1.352757699e-09
6.94978151e-10
1.324046641e-09
6.67750665e-10
1.291597835e-09
6.357754186e-10
1.255473868e-09
5.994351705e-10
1.215726348e-09
5.59194364e-10
1.172391677e-09
5.155944943e-10
1.125484924e-09
4.692480718e-10
1.074992497e-09
4.208321243e-10
1.020863448e-09
3.710833706e-10
9.630008403e-10
3.20797121e-10
9.01257458e-10
2.708298485e-10
8.354404899e-10
2.221029534e-10
7.65331436e-10
1.755990863e-10
6.907268248e-10
1.323417539e-10
6.114966489e-10
9.335609553e-11
5.276481121e-10
5.963465366e-11
4.3936461e-10
3.217435612e-11
3.469816328e-10
1.218251502e-11
2.508801422e-10
1.535247471e-12
1.513015525e-10
5.022263452e-11
3.76971934e-12
6.501618244e-11
1.47702763e-11
1.901681951e-10
3.250932232e-11
3.080701891e-10
5.646393298e-11
4.188692043e-10
8.608807433e-11
5.227271898e-10
1.208195619e-10
6.198172667e-10
1.600847081e-10
7.103204638e-10
2.033026837e-10
7.944226175e-10
2.498890507e-10
8.7231197e-10
2.992585279e-10
9.441769209e-10
3.508272561e-10
1.010204129e-09
4.040146142e-10
1.070576868e-09
4.582447755e-10
1.12547374e-09
5.129477531e-10
1.175067816e-09
5.675603033e-10
1.219525402e-09
6.215270862e-10
1.259005685e-09
6.743008963e-10
1.293660334e-09
7.25343742e-10
1.32363328e-09
7.741273319e-10
1.349060407e-09
8.201337595e-10
1.370069739e-09
8.628569083e-10
1.386780861e-09
9.018033136e-10
1.399305806e-09
9.364939827e-10
1.407748024e-09
9.664669636e-10
1.412202688e-09
9.912798899e-10
1.412756503e-09
1.010514057e-09
1.409486697e-09
1.023779184e-09
1.402461177e-09
1.030719041e-09
1.39173729e-09
1.031018292e-09
1.377360857e-09
1.024410353e-09
1.359365636e-09
1.010685891e-09
1.337771103e-09
9.897021598e-10
1.312581567e-09
9.613932314e-10
1.283782796e-09
9.257802015e-10
1.251339378e-09
8.829816761e-10
1.215190202e-09
8.332249306e-10
1.175241669e-09
7.768576437e-10
1.131359783e-09
7.143623502e-10
1.083358741e-09
6.463763592e-10
1.030986831e-09
5.737228146e-10
9.73911002e-10
4.97461086e-10
9.117022175e-10
4.189617243e-10
8.438307967e-10
3.400055725e-10
7.696829755e-10
2.628873068e-10
6.886149132e-10
1.904775146e-10
6.000579028e-10
1.261623912e-10
5.036797317e-10
7.349204215e-11
3.996519797e-10
3.514378168e-11
2.892283993e-10
1.071815451e-11
1.757271774e-10
6.094078901e-11
4.229447866e-12
6.078673459e-11
1.658587091e-11
1.778117721e-10
3.654111615e-11
2.881149438e-10
6.354562419e-11
3.918646962e-10
9.703551409e-11
4.892372999e-10
1.364377348e-10
5.804150459e-10
1.811742787e-10
6.655839199e-10
2.306654702e-10
7.449314258e-10
2.843329197e-10
8.186445205e-10
3.416016656e-10
8.869081748e-10
4.01901896e-10
9.499038983e-10
4.646701941e-10
1.00780857e-09
5.293504216e-10
1.060793513e-09
5.953942929e-10
1.109023945e-09
6.622612888e-10
1.152658406e-09
7.294185936e-10
1.19184838e-09
7.963405719e-10
1.226738356e-09
8.625081202e-10
1.257465732e-09
9.27407397e-10
1.284161131e-09
9.905286389e-10
1.306948497e-09
1.051364708e-09
1.325944791e-09
1.109409598e-09
1.341260916e-09
1.164156725e-09
1.353000896e-09
1.215097226e-09
1.361262187e-09
1.261718963e-09
1.366134765e-09
1.30350472e-09
1.36770094e-09
1.339932014e-09
1.366033882e-09
1.370472414e-09
1.36119689e-09
1.394591692e-09
1.353241579e-09
1.411750786e-09
1.342206542e-09
1.421407305e-09
1.328114584e-09
1.423017942e-09
1.31097093e-09
1.416041507e-09
1.290759229e-09
1.39994311e-09
1.267437775e-09
1.374200163e-09
1.240933148e-09
1.338309175e-09
1.211132657e-09
1.291796454e-09
1.177872503e-09
1.234232097e-09
1.140923097e-09
1.16525192e-09
1.099967007e-09
1.084591952e-09
1.054570968e-09
9.921475344e-10
1.004146634e-09
8.880742348e-10
9.479040952e-10
7.72957238e-10
8.847999708e-10
6.480791573e-10
8.134929919e-10
5.158161198e-10
7.323209386e-10
3.801818174e-10
6.393140319e-10
2.475321176e-10
5.323016767e-10
1.277170179e-10
4.090434952e-10
3.75402165e-11
2.659039765e-10
9.84810055e-11
4.565985577e-12
5.622074901e-11
1.790712974e-11
1.64470628e-10
3.947182179e-11
2.665502518e-10
6.869673465e-11
3.626397833e-10
1.050111592e-10
4.529228753e-10
1.478410321e-10
5.375851729e-10
1.966123585e-10
6.168125933e-10
2.507534901e-10
6.907902944e-10
3.096971405e-10
7.597008702e-10
3.728818922e-10
8.237234232e-10
4.397531733e-10
8.830326173e-10
5.097638795e-10
9.377978635e-10
5.823746524e-10
9.881827397e-10
6.570539626e-10
1.034344634e-09
7.332779607e-10
1.076434408e-09
8.105300884e-10
1.114596252e-09
8.88301103e-10
1.148967341e-09
9.660890436e-10
1.179677792e-09
1.043399245e-09
1.206850929e-09
1.119745082e-09
1.23060266e-09
1.194648492e-09
1.251041382e-09
1.267640861e-09
1.268268548e-09
1.338263911e-09
1.282377846e-09
1.406069567e-09
1.293456532e-09
1.470619574e-09
1.301584758e-09
1.531483465e-09
1.30683705e-09
1.588235294e-09
1.309282052e-09
1.640448491e-09
1.308983693e-09
1.68768927e-09
1.306000801e-09
1.729507708e-09
1.300388104e-09
1.765427614e-09
1.292194678e-09
1.794933816e-09
1.281464728e-09
1.81745774e-09
1.268235305e-09
1.832360075e-09
1.252535441e-09
1.838911035e-09
1.234382187e-09
1.836267267e-09
1.213776425e-09
1.82344422e-09
1.19069555e-09
1.799283451e-09
1.165083866e-09
1.762411012e-09
1.136839446e-09
1.711184247e-09
1.105797733e-09
1.643622803e-09
1.071708078e-09
1.557327147e-09
1.03419975e-09
1.44940473e-09
9.927223867e-10
1.316469584e-09
9.464281375e-10
1.154847382e-09
8.939431393e-10
9.612047678e-10
8.329566449e-10
7.339494672e-10
7.595569752e-10
4.763175956e-10
6.666753634e-10
2.046159507e-10
5.376056185e-10
3.030969561e-10
-4.760713072e-13
5.669682032e-11
-1.871968909e-12
1.658665256e-10
-4.150004746e-12
2.688282877e-10
-7.283319155e-12
3.657730977e-10
-1.12524164e-11
4.568919725e-10
-1.604406928e-11
5.423768258e-10
-2.165029675e-11
6.224188208e-10
-2.806699948e-11
6.972069971e-10
-3.529290743e-11
7.669267781e-10
-4.332838216e-11
8.317588979e-10
-5.217443761e-11
8.918786728e-10
-6.183179037e-11
9.474552163e-10
-7.229997456e-11
9.986509238e-10
-8.357644881e-11
1.045621109e-09
-9.565568109e-11
1.088513641e-09
-1.085279597e-10
1.127468531e-09
-1.221782668e-10
1.162617648e-09
-1.365850433e-10
1.194084568e-09
-1.517187843e-10
1.22198467e-09
-1.675406022e-10
1.246424478e-09
-1.840015874e-10
1.267502367e-09
-2.010420887e-10
1.285309049e-09
-2.18592348e-10
1.299928105e-09
-2.365732825e-10
1.311437466e-09
-2.548983688e-10
1.319909844e-09
-2.734753424e-10
1.325414023e-09
-2.922079917e-10
1.328014702e-09
-3.109968571e-10
1.327772559e-09
-3.297391515e-10
1.324743095e-09
-3.483271197e-10
1.318976072e-09
-3.666457372e-10
1.310513295e-09
-3.845695192e-10
1.29938851e-09
-4.019597143e-10
1.2856255e-09
-4.186611752e-10
1.269236901e-09
-4.344993323e-10
1.250220344e-09
-4.492750057e-10
1.228552098e-09
-4.62756092e-10
1.204176636e-09
-4.746629901e-10
1.176990764e-09
-4.84646055e-10
1.14682251e-09
-4.922500783e-10
1.113401756e-09
-4.968572743e-10
1.076315274e-09
-4.975891148e-10
1.03493159e-09
-4.93130976e-10
9.882642472e-10
-4.814356606e-10
9.347328212e-10
-4.592775157e-10
8.717849933e-10
-4.216810181e-10
7.953601459e-10
-3.613259801e-10
6.992019352e-10
-2.685906651e-10
5.739400439e-10
-1.353870397e-10
4.044019892e-10
1.677099164e-10
-3.721534357e-13
5.706897376e-11
-1.466072573e-12
1.669604447e-10
-3.254938896e-12
2.70617154e-10
-5.72061008e-12
3.682387689e-10
-8.852021935e-12
4.600233844e-10
-1.264359001e-11
5.461683939e-10
-1.7093988e-11
6.268692188e-10
-2.22045225e-11
7.023175316e-10
-2.797793012e-11
7.727001857e-10
-3.441710569e-11
8.381980735e-10
-4.152375356e-11
8.989853206e-10
-4.929704862e-11
9.552285113e-10
-5.773224391e-11
1.007086119e-09
-6.681914404e-11
1.054708009e-09
-7.654037663e-11
1.098234873e-09
-8.686974882e-11
1.137797903e-09
-9.777096303e-11
1.173518863e-09
-1.091970091e-10
1.205510614e-09
-1.210900314e-10
1.233877692e-09
-1.333829049e-10
1.258717352e-09
-1.46002118e-10
1.28012158e-09
-1.588710112e-10
1.298177942e-09
-1.71914647e-10
1.312971741e-09
-1.850631549e-10
1.324585974e-09
-1.982554665e-10
1.333102156e-09
-2.114404033e-10
1.33859896e-09
-2.24577033e-10
1.341151331e-09
-2.376320679e-10
1.340827593e-09
-2.505766854e-10
1.337687712e-09
-2.633807768e-10
1.331780163e-09
-2.760071187e-10
1.323139637e-09
-2.884038029e-10
1.311785194e-09
-3.004973973e-10
1.297719094e-09
-3.121851362e-10
1.28092464e-09
-3.233277269e-10
1.261362935e-09
-3.337398664e-10
1.238964238e-09
-3.431774678e-10
1.213614237e-09
-3.513172134e-10
1.185130509e-09
-3.577241744e-10
1.153229471e-09
-3.617996288e-10
1.11747721e-09
-3.62700211e-10
1.077215856e-09
-3.592213428e-10
1.031452721e-09
-3.496538423e-10
9.786967464e-10
-3.316625014e-10
9.167414797e-10
-3.023080899e-10
8.424305812e-10
-2.584429655e-10
7.514950207e-10
-1.978801459e-10
6.386391144e-10
-1.222520316e-10
4.983119283e-10
-4.490747815e-11
3.270574347e-10
1.228024382e-10
-2.803921632e-13
5.734936592e-11
-1.104070921e-12
1.677841235e-10
-2.453377533e-12
2.719664606e-10
-4.317789193e-12
3.701031805e-10
-6.692665295e-12
4.623982605e-10
-9.577528908e-12
5.490532575e-10
-1.297461577e-11
6.302663056e-10
-1.68870944e-11
7.062300102e-10
-2.131743669e-11
7.77130528e-10
-2.626582625e-11
8.43146463e-10
-3.17283904e-11
9.044478847e-10
-3.769545982e-11
9.611955807e-10
-4.414996879e-11
1.013540628e-09
-5.106619807e-11
1.061624238e-09
-5.840915242e-11
1.105577827e-09
-6.613517168e-11
1.145523922e-09
-7.419376461e-11
1.181577455e-09
-8.253061404e-11
1.213847463e-09
-9.109130596e-11
1.242438384e-09
-9.982583622e-11
1.267451882e-09
-1.086915661e-10
1.28898731e-09
-1.17655537e-10
1.307141913e-09
-1.266947191e-10
1.322010923e-09
-1.357945468e-10
1.333685802e-09
-1.449464671e-10
1.342254076e-09
-1.541441813e-10
1.347796674e-09
-1.63379964e-10
1.350387114e-09
-1.726405781e-10
1.350088207e-09
-1.819035228e-10
1.346950657e-09
-1.911334757e-10
1.341010116e-09
-2.002784311e-10
1.332284592e-09
-2.092654961e-10
1.320772259e-09
-2.179949117e-10
1.306448509e-09
-2.263327552e-10
1.289262483e-09
-2.341006431e-10
1.269130823e-09
-2.410633632e-10
1.245926958e-09
-2.469120811e-10
1.219462955e-09
-2.512429559e-10
1.189461384e-09
-2.535277528e-10
1.155514268e-09
-2.530767258e-10
1.117026183e-09
-2.489986672e-10
1.073137797e-09
-2.40181256e-10
1.02263531e-09
-2.253421022e-10
9.638575919e-10
-2.032338861e-10
8.946332626e-10
-1.731013412e-10
8.122980349e-10
-1.354461058e-10
7.138397835e-10
-9.300030506e-11
5.961933112e-10
-5.132014311e-11
4.566317624e-10
-1.730523391e-11
2.93042523e-10
1.054972043e-10
-2.016756661e-13
5.755104159e-11
-7.951662739e-13
1.683776141e-10
-1.77005535e-12
2.729413497e-10
-3.121940066e-12
3.714550653e-10
-4.850980853e-12
4.641273013e-10
-6.960093909e-12
5.511623705e-10
-9.45291997e-12
6.327591316e-10
-1.233195983e-11
7.091090501e-10
-1.559651932e-11
7.803950875e-10
-1.924093447e-11
8.467908781e-10
-2.325315543e-11
9.084601057e-10
-2.761398303e-11
9.655564083e-10
-3.229731626e-11
1.018223961e-09
-3.727162365e-11
1.066598545e-09
-4.250273579e-11
1.11080894e-09
-4.795749154e-11
1.150978678e-09
-5.360748819e-11
1.187227452e-09
-5.943207527e-11
1.21967205e-09
-6.542048286e-11
1.248426792e-09
-7.157192315e-11
1.273603322e-09
-7.789390405e-11
1.29530929e-09
-8.44000029e-11
1.313648012e-09
-9.110554406e-11
1.328716464e-09
-9.802452794e-11
1.340604785e-09
-1.051654346e-10
1.349394983e-09
-1.125289808e-10
1.35516022e-09
-1.201051508e-10
1.357963284e-09
-1.278720551e-10
1.357855112e-09
-1.357933118e-10
1.354871913e-09
-1.438166197e-10
1.349033424e-09
-1.518706621e-10
1.340338635e-09
-1.598619249e-10
1.328763522e-09
-1.67669422e-10
1.314256006e-09
-1.751376511e-10
1.296730712e-09
-1.820667466e-10
1.276059919e-09
-1.881995964e-10
1.252059807e-09
-1.932060952e-10
1.224469454e-09
-1.966646246e-10
1.192919913e-09
-1.980436245e-10
1.156893268e-09
-1.966893472e-10
1.115671905e-09
-1.918344506e-10
1.068282901e-09
-1.826506536e-10
1.013451513e-09
-1.683733087e-10
9.495802472e-10
-1.485191401e-10
8.747790941e-10
-1.231889129e-10
7.86967808e-10
-9.341341172e-11
6.840642829e-10
-6.148611213e-11
5.642660123e-10
-3.127524525e-11
4.264208967e-10
-8.681663694e-12
2.70448942e-10
9.681554055e-11
-1.371749839e-13
5.768821657e-11
-5.41460166e-13
1.687818992e-10
-1.20806996e-12
2.736079595e-10
-2.136860431e-12
3.723838557e-10
-3.330513897e-12
4.653209547e-10
-4.792508453e-12
5.526243651e-10
-6.524668298e-12
6.344912915e-10
-8.525539394e-12
7.111099211e-10
-1.078896353e-11
7.826585116e-10
-1.330369427e-11
8.493056088e-10
-1.605415216e-11
9.112105635e-10
-1.90223616e-11
9.685246177e-10
-2.219076561e-11
1.021392365e-09
-2.554530904e-11
1.069953089e-09
-2.907815399e-11
1.114341784e-09
-3.278939841e-11
1.154689922e-09
-3.668714545e-11
1.191125199e-09
-4.078656183e-11
1.223771467e-09
-4.510787311e-11
1.252748103e-09
-4.967317731e-11
1.278168626e-09
-5.450411348e-11
1.300140227e-09
-5.961917306e-11
1.318763071e-09
-6.503161952e-11
1.33412891e-09
-7.074774448e-11
1.34632091e-09
-7.676498371e-11
1.355412222e-09
-8.307023224e-11
1.361465468e-09
-8.963815171e-11
1.364531203e-09
-9.642966152e-11
1.364646622e-09
-1.033905482e-10
1.3618328e-09
-1.10449471e-10
1.356092346e-09
-1.175161848e-10
1.347405348e-09
-1.244777569e-10
1.335725094e-09
-1.311945722e-10
1.320972822e-09
-1.374932508e-10
1.303029391e-09
-1.431587826e-10
1.28172545e-09
-1.479236841e-10
1.256824709e-09
-1.514576035e-10
1.228003373e-09
-1.533581898e-10
1.194820499e-09
-1.531504096e-10
1.156685487e-09
-1.503017002e-10
1.112823196e-09
-1.442673285e-10
1.062248529e-09
-1.345761954e-10
1.003760379e-09
-1.209649301e-10
9.359689813e-10
-1.035499704e-10
8.573641336e-10
-8.300810853e-11
7.664259452e-10
-6.07114468e-11
6.617676199e-10
-3.873611106e-11
5.422906749e-10
-1.963989198e-11
4.073246753e-10
-5.883555408e-12
2.566926041e-10
9.093198516e-11
-8.631963239e-14
5.77745362e-11
-3.412406379e-13
1.690368202e-10
-7.636766444e-13
2.740303955e-10
-1.3554155e-12
3.729755946e-10
-2.119141905e-12
4.660846811e-10
-3.056476353e-12
5.535616995e-10
-4.166453043e-12
6.356012681e-10
-5.44523476e-12
7.123887028e-10
-6.887009494e-12
7.841002863e-10
-8.485592126e-12
8.509041914e-10
-1.023673193e-11
9.129617033e-10
-1.214034061e-11
9.704282263e-10
-1.420209951e-11
1.023454124e-09
-1.643404519e-11
1.072185034e-09
-1.885414238e-11
1.116761882e-09
-2.148472948e-11
1.157320509e-09
-2.435065001e-11
1.193991119e-09
-2.747738945e-11
1.226898206e-09
-3.088905316e-11
1.256159766e-09
-3.460665512e-11
1.281886228e-09
-3.864710034e-11
1.304180672e-09
-4.302127007e-11
1.323137241e-09
-4.773355877e-11
1.338841199e-09
-5.27802075e-11
1.351367559e-09
-5.814898602e-11
1.360781001e-09
-6.381736743e-11
1.36713385e-09
-6.975201369e-11
1.37046585e-09
-7.590669455e-11
1.370801302e-09
-8.222132528e-11
1.36814743e-09
-8.861945197e-11
1.362490473e-09
-9.50061809e-11
1.353792077e-09
-1.012646492e-10
1.341983562e-09
-1.072515891e-10
1.326959761e-09
-1.12791807e-10
1.308569609e-09
-1.176712176e-10
1.286604861e-09
-1.21630344e-10
1.260783835e-09
-1.243591086e-10
1.230732138e-09
-1.254982457e-10
1.195959637e-09
-1.246510068e-10
1.155838248e-09
-1.214133435e-10
1.109585533e-09
-1.154266583e-10
1.056261844e-09
-1.064547856e-10
9.947885067e-10
-9.447848327e-11
9.239926793e-10
-7.979102297e-11
8.426766739e-10
-6.307444431e-11
7.497093672e-10
-4.543499278e-11
6.441281693e-10
-2.838495967e-11
5.252406432e-10
-1.377151597e-11
3.927112337e-10
-3.693581115e-12
2.466146704e-10
8.723840403e-11
-4.786435486e-14
5.782240056e-11
-1.896180158e-13
1.691785739e-10
-4.259573973e-13
2.742667349e-10
-7.588340915e-13
3.733084713e-10
-1.190291028e-12
4.66516138e-10
-1.721622119e-12
5.540930306e-10
-2.353775492e-12
6.362334215e-10
-3.088375819e-12
7.131233031e-10
-3.929386371e-12
7.849412968e-10
-4.884504445e-12
8.518593094e-10
-5.9659139e-12
9.140431127e-10
-7.190408827e-12
9.716527212e-10
-8.578762702e-12
1.024842478e-09
-1.015461015e-11
1.073760882e-09
-1.194311733e-11
1.118550389e-09
-1.396965311e-11
1.159347045e-09
-1.625868843e-11
1.196280155e-09
-1.883260525e-11
1.229472123e-09
-2.171017917e-11
1.25903734e-09
-2.490608506e-11
1.285082134e-09
-2.842988666e-11
1.307704473e-09
-3.228531278e-11
1.326992667e-09
-3.646977395e-11
1.34302566e-09
-4.097332533e-11
1.35587111e-09
-4.577819647e-11
1.365585872e-09
-5.085740749e-11
1.372213061e-09
-5.61737536e-11
1.375782196e-09
-6.167822583e-11
1.376305775e-09
-6.730816233e-11
1.373777367e-09
-7.298532843e-11
1.368167639e-09
-7.861291153e-11
1.35941966e-09
-8.407294959e-11
1.3474436e-09
-8.922180226e-11
1.332108614e-09
-9.388655767e-11
1.313234364e-09
-9.786040933e-11
1.290578713e-09
-1.00900538e-10
1.263823964e-09
-1.027293646e-10
1.232560964e-09
-1.030439186e-10
1.196274191e-09
-1.015359503e-10
1.15433028e-09
-9.792708343e-11
1.105976666e-09
-9.201769445e-11
1.050352454e-09
-8.374714039e-11
9.865179523e-10
-7.325506062e-11
9.135005992e-10
-6.093201737e-11
8.303536301e-10
-4.744563337e-11
7.362229826e-10
-3.372924949e-11
6.304117847e-10
-2.092324847e-11
5.124346411e-10
-1.026401414e-11
3.820519978e-10
-2.916592382e-12
2.392672479e-10
8.432181168e-11
-2.030905488e-14
5.784270961e-11
-8.123737457e-14
1.692395022e-10
-1.848356273e-13
2.743703331e-10
-3.34142964e-13
3.734577786e-10
-5.332926023e-13
4.667152877e-10
-7.87621744e-13
5.543473597e-10
-1.104687005e-12
6.365504868e-10
-1.494875786e-12
7.135134919e-10
-1.971854833e-12
7.854182759e-10
-2.55260894e-12
8.524400635e-10
-3.256992778e-12
9.147474966e-10
-4.107143922e-12
9.725028724e-10
-5.126731667e-12
1.025862066e-09
-6.340030967e-12
1.074974181e-09
-7.770905296e-12
1.119981263e-09
-9.44197325e-12
1.161018113e-09
-1.137389268e-11
1.198212074e-09
-1.358447014e-11
1.2316827e-09
-1.608804983e-11
1.26154092e-09
-1.889522494e-11
1.287889309e-09
-2.201175653e-11
1.310821005e-09
-2.543855403e-11
1.330419464e-09
-2.917054743e-11
1.346757654e-09
-3.319635189e-11
1.359896915e-09
-3.749701158e-11
1.369886532e-09
-4.204530846e-11
1.376761358e-09
-4.680392257e-11
1.38054081e-09
-5.172444479e-11
1.381226297e-09
-5.674488576e-11
1.378797808e-09
-6.178811884e-11
1.373210872e-09
-6.675889717e-11
1.364390439e-09
-7.154143018e-11
1.352226133e-09
-7.59963042e-11
1.336563488e-09
-7.995783626e-11
1.317195896e-09
-8.323286293e-11
1.293853739e-09
-8.560168694e-11
1.266192788e-09
-8.682463389e-11
1.233783911e-09
-8.665506139e-11
1.196104618e-09
-8.486213312e-11
1.152537352e-09
-8.126234089e-11
1.102376874e-09
-7.575812926e-11
1.044848243e-09
-6.837859694e-11
9.791384204e-10
-5.931438123e-11
9.04436384e-10
-4.894030464e-11
8.199795542e-10
-3.781897016e-11
7.25101649e-10
-2.668268885e-11
6.192755045e-10
-1.639428348e-11
5.021462373e-10
-7.892878763e-12
3.735505953e-10
-2.141479939e-12
2.335158503e-10
8.218033172e-11
-3.712330706e-15
5.784642194e-11
-1.583325662e-14
1.692516231e-10
-4.022355216e-14
2.743947234e-10
-8.243181939e-14
3.734999869e-10
-1.499748075e-13
4.667828307e-10
-2.525066361e-13
5.544498916e-10
-4.020804804e-13
6.367000606e-10
-6.132840725e-13
7.137246955e-10
-9.031448412e-13
7.857081367e-10
-1.290844831e-12
8.528277635e-10
-1.797263611e-12
9.152539154e-10
-2.444281294e-12
9.731498901e-10
-3.254089977e-12
1.026671874e-09
-4.248545543e-12
1.075968637e-09
-5.448639634e-12
1.121181357e-09
-6.873909936e-12
1.162443383e-09
-8.54199269e-12
1.199880157e-09
-1.046779711e-11
1.233608505e-09
-1.26634061e-11
1.263736529e-09
-1.513738865e-11
1.290363291e-09
-1.789411777e-11
1.313577734e-09
-2.093358953e-11
1.333458936e-09
-2.425011863e-11
1.350074183e-09
-2.783220781e-11
1.363479004e-09
-3.166091461e-11
1.373715238e-09
-3.57093404e-11
1.380809783e-09
-3.994070999e-11
1.384772179e-09
-4.430718806e-11
1.385592775e-09
-4.874786603e-11
1.383238486e-09
-5.318677148e-11
1.377649778e-09
-5.753090819e-11
1.368734575e-09
-6.166773942e-11
1.356362965e-09
-6.546392782e-11
1.340359677e-09
-6.876383768e-11
1.320495806e-09
-7.139122594e-11
1.296481128e-09
-7.315284186e-11
1.267954404e-09
-7.384805191e-11
1.234479121e-09
-7.328325688e-11
1.195539823e-09
-7.129367173e-11
1.150547766e-09
-6.776913581e-11
1.098852338e-09
-6.268281251e-11
1.03976192e-09
-5.611736523e-11
9.72572973e-10
-4.828400549e-11
8.966030241e-10
-3.953071789e-11
8.112262663e-10
-3.033632741e-11
7.159072581e-10
-2.128956115e-11
6.102287377e-10
-1.305396741e-11
4.939106428e-10
-6.321537193e-12
3.66818164e-10
-1.758133421e-12
2.28952446e-10
8.042219833e-11
3.022445437e-15
5.78433995e-11
1.10191148e-14
1.692436265e-10
1.955053197e-14
2.74386192e-10
2.203911056e-14
3.734974983e-10
9.866910358e-15
4.667950029e-10
-2.79203191e-14
5.544876788e-10
-1.044088254e-13
6.367765491e-10
-2.348608777e-13
7.138551476e-10
-4.362238456e-13
7.859094996e-10
-7.268337981e-13
8.531183735e-10
-1.12602676e-12
9.156531083e-10
-1.653685779e-12
9.736775491e-10
-2.329741886e-12
1.02734793e-09
-3.173712182e-12
1.076812607e-09
-4.20427793e-12
1.122211923e-09
-5.438919653e-12
1.163678025e-09
-6.89329885e-12
1.201334536e-09
-8.580911302e-12
1.235296117e-09
-1.051281232e-11
1.26566843e-09
-1.269669105e-11
1.29254717e-09
-1.513670944e-11
1.316017752e-09
-1.783262267e-11
1.33615485e-09
-2.077909387e-11
1.353020654e-09
-2.396488839e-11
1.366664798e-09
-2.737181269e-11
1.377122163e-09
-3.097355006e-11
1.384411521e-09
-3.473446758e-11
1.388533097e-09
-3.860777597e-11
1.389466083e-09
-4.253432798e-11
1.387165038e-09
-4.644030263e-11
1.381555752e-09
-5.023613128e-11
1.372530404e-09
-5.381451156e-11
1.359941345e-09
-5.705015756e-11
1.343595323e-09
-5.980019607e-11
1.323245844e-09
-6.190715189e-11
1.298588084e-09
-6.320495683e-11
1.269252209e-09
-6.352903092e-11
1.234803195e-09
-6.273064131e-11
1.194741434e-09
-6.069522486e-11
1.14851235e-09
-5.736236433e-11
1.095519477e-09
-5.274575185e-11
1.035145308e-09
-4.694907592e-11
9.667762975e-10
-4.017563355e-11
8.898295823e-10
-3.272942936e-11
8.037800629e-10
-2.500695135e-11
7.08184781e-10
-1.748005958e-11
6.02701847e-10
-1.067216074e-11
4.871027455e-10
-5.130856889e-12
3.612768624e-10
-1.403203577e-12
2.25224794e-10
7.901899474e-11
4.137164264e-15
5.783926233e-11
1.548908846e-14
1.692322745e-10
3.030951353e-14
2.743713716e-10
4.265251698e-14
3.734851553e-10
4.447050022e-14
4.667931849e-10
2.548775989e-14
5.545066615e-10
-2.647532973e-14
6.368285122e-10
-1.253923503e-13
7.139540646e-10
-2.867246915e-13
7.86070832e-10
-5.270077253e-13
8.533586565e-10
-8.635653329e-13
9.15989666e-10
-1.314169237e-12
9.74128153e-10
-1.89665883e-12
1.02793042e-09
-2.628580027e-12
1.077544528e-09
-3.526892967e-12
1.123110236e-09
-4.607476911e-12
1.164758609e-09
-5.884704664e-12
1.202611764e-09
-7.371189419e-12
1.236782602e-09
-9.077218739e-12
1.267374459e-09
-1.101003604e-11
1.294479987e-09
-1.317370772e-11
1.318181424e-09
-1.556783912e-11
1.338548981e-09
-1.818745581e-11
1.355640271e-09
-2.102153106e-11
1.369498874e-09
-2.405254508e-11
1.380153177e-09
-2.725473906e-11
1.387613715e-09
-3.059352068e-11
1.391871879e-09
-3.4023362e-11
1.392895925e-09
-3.74869034e-11
1.390628579e-09
-4.091314406e-11
1.384981993e-09
-4.421644877e-11
1.375833709e-09
-4.729590884e-11
1.363020805e-09
-5.003547347e-11
1.346334887e-09
-5.230619989e-11
1.325516571e-09
-5.396983506e-11
1.300251719e-09
-5.488625942e-11
1.270168633e-09
-5.492293936e-11
1.234839875e-09
-5.396821426e-11
1.193786709e-09
-5.194573089e-11
1.146489867e-09
-4.882960411e-11
1.092403351e-09
-4.465786381e-11
1.030973567e-09
-3.954179285e-11
9.616602264e-10
-3.367028475e-11
8.83958074e-10
-2.730772909e-11
7.97417507e-10
-2.078558597e-11
7.016626376e-10
-1.448807232e-11
5.964043329e-10
-8.833685426e-12
4.814483579e-10
-4.254198327e-12
3.566973743e-10
-1.17325023e-12
2.221438455e-10
7.784574454e-11
3.014593732e-15
5.783624774e-11
1.115245272e-14
1.692241367e-10
2.157265738e-14
2.743609514e-10
2.947804175e-14
3.734772499e-10
2.798809191e-14
4.667946748e-10
8.267571157e-15
5.545263821e-10
-4.03236389e-14
6.368771034e-10
-1.299113891e-13
7.140436524e-10
-2.740161837e-13
7.862149368e-10
-4.87186736e-13
8.535718271e-10
-7.847224685e-13
9.162872017e-10
-1.182424289e-12
9.745258549e-10
-1.696270955e-12
1.028444267e-09
-2.342151504e-12
1.078190409e-09
-3.13549158e-12
1.123903576e-09
-4.090800276e-12
1.165713918e-09
-5.221438322e-12
1.203742402e-09
-6.539243923e-12
1.238100408e-09
-8.053726973e-12
1.268888942e-09
-9.771842325e-12
1.296198103e-09
-1.169735365e-11
1.320106935e-09
-1.382990124e-11
1.340681529e-09
-1.616464159e-11
1.357975011e-09
-1.869091266e-11
1.372025145e-09
-2.139168076e-11
1.382853945e-09
-2.424204145e-11
1.390464075e-09
-2.720835838e-11
1.394838196e-09
-3.024680615e-11
1.395934373e-09
-3.330211239e-11
1.393683885e-09
-3.630675679e-11
1.387986638e-09
-3.917985974e-11
1.378706812e-09
-4.182777953e-11
1.365668725e-09
-4.414466952e-11
1.348651777e-09
-4.601578073e-11
1.327387682e-09
-4.732158809e-11
1.301557526e-09
-4.794530991e-11
1.270792355e-09
-4.778157467e-11
1.23467614e-09
-4.674773081e-11
1.192752865e-09
-4.47949438e-11
1.14453708e-09
-4.191938759e-11
1.089527795e-09
-3.817107065e-11
1.027225251e-09
-3.36591317e-11
9.57148288e-10
-2.855326238e-11
8.788522054e-10
-2.308046523e-11
7.919447106e-10
-1.751757285e-11
6.960997462e-10
-1.218015225e-11
5.910669136e-10
-7.409215003e-12
4.766774223e-10
-3.557111841e-12
3.528452734e-10
-9.749275546e-13
2.195616625e-10
7.687081697e-11
1.138909756e-15
5.783510883e-11
4.01226933e-15
1.692212633e-10
6.66772683e-15
2.743582959e-10
5.435253302e-15
3.734784824e-10
-5.310948345e-15
4.66805421e-10
-3.28853659e-14
5.545539565e-10
-8.631596725e-14
6.36930534e-10
-1.759776211e-13
7.14133314e-10
-3.134657905e-13
7.86352425e-10
-5.114340238e-13
8.537697953e-10
-7.833306677e-13
9.165590983e-10
-1.14316434e-12
9.748856885e-10
-1.60523743e-12
1.02890634e-09
-2.183863522e-12
1.078769035e-09
-2.892989501e-12
1.124612702e-09
-3.745944966e-12
1.166566873e-09
-4.75509236e-12
1.204751549e-09
-5.931343274e-12
1.239276659e-09
-7.283509457e-12
1.270241109e-09
-8.818163931e-12
1.297732757e-09
-1.053860271e-11
1.321827374e-09
-1.244449414e-11
1.34258742e-09
-1.453088001e-11
1.360061397e-09
-1.678750384e-11
1.374281768e-09
-1.919764079e-11
1.385264082e-09
-2.173729837e-11
1.393003733e-09
-2.4373813e-11
1.39747471e-09
-2.706520452e-11
1.398625764e-09
-2.97586288e-11
1.39637731e-09
-3.239032506e-11
1.390618334e-09
-3.488483933e-11
1.381201326e-09
-3.715608596e-11
1.367939971e-09
-3.910879534e-11
1.350604487e-09
-4.064191592e-11
1.328920803e-09
-4.165335898e-11
1.302568969e-09
-4.204670175e-11
1.271185698e-09
-4.173908175e-11
1.23436852e-09
-4.067034206e-11
1.191684125e-09
-3.881151809e-11
1.142678256e-09
-3.617295787e-11
1.086889234e-09
-3.280995292e-11
1.023862246e-09
-2.882571954e-11
9.531640546e-10
-2.437122279e-11
8.743977086e-10
-1.964173169e-11
7.872152194e-10
-1.487033385e-11
6.913283482e-10
-1.031917364e-11
5.865157531e-10
-6.269215261e-12
4.726274634e-10
-3.009435303e-12
3.495854928e-10
-8.265399675e-13
2.17378767e-10
7.604427704e-11
-9.450699961e-16
5.78360539e-11
-3.972675685e-15
1.692242909e-10
-1.015376728e-14
2.74364477e-10
-2.201451055e-14
3.734903431e-10
-4.38801714e-14
4.668272867e-10
-8.170771522e-14
5.54591784e-10
-1.430513845e-13
6.369918777e-10
-2.367658736e-13
7.142270285e-10
-3.728163084e-13
7.864884754e-10
-5.621657847e-13
8.539591448e-10
-8.166040653e-13
9.168135366e-10