/*--------------------------------*- C++ -*----------------------------------*\
  =========                 |
  \\      /  F ield         | OpenFOAM: The Open Source CFD Toolbox
   \\    /   O peration     | Website:  https://openfoam.org
    \\  /    A nd           | Version:  7
     \\/     M anipulation  |
\*---------------------------------------------------------------------------*/
FoamFile
{
    version     2.0;
    format      ascii;
    class       volScalarField;
    location    "0.0003";
    object      thermo:mu;
}
// * * * * * * * * * * * * * * * * * * * * * * * * * * * * * * * * * * * * * //

dimensions      [1 -1 -1 0 0 0 0];

internalField   nonuniform List<scalar> 
1167
(
94364.39903
92022.06754
90965.38395
88746.34807
85581.19782
81655.66458
77157.89777
72269.40048
67159.41424
61977.03248
56846.85625
51868.91208
47118.49535
42649.22448
38493.77618
34668.90747
31178.06938
28014.64851
25164.78637
22610.3785
20329.1718
18298.36318
16495.01937
14896.04633
13480.00597
12226.85721
11118.03625
10136.68203
9267.754492
8497.774797
7814.669337
7207.97469
6668.297962
6187.517508
5758.470499
5374.887991
5031.271091
4722.911088
4445.574402
4195.638056
3969.95403
3765.705186
3580.455604
3412.080907
3258.71077
3118.699938
2990.583632
2873.090484
2765.077347
2665.555207
2573.643301
89748.28141
88762.45642
86690.49107
83731.2259
80050.62898
75822.846
71212.24956
66374.53438
61447.81222
56549.0134
51773.22952
47193.39116
42862.68069
38815.50905
35070.67405
31635.65128
28506.39992
25673.66305
23121.7238
20832.057
18784.71959
16958.4872
15332.64476
13887.42383
12603.66779
11463.84067
10452.08488
9553.618624
8755.327942
8045.576063
7413.80715
6850.861565
6348.535126
5899.697987
5498.003829
5137.928162
4814.572395
4523.775552
4261.723814
4025.169486
3811.291917
3617.537545
3441.699365
3281.839449
3136.243012
3003.380269
2881.911398
2770.629782
2668.474294
2574.480893
87541.23806
86631.10398
84716.71449
81974.47578
78556.59355
74615.67367
70302.79495
65757.62334
61106.46027
56457.75203
51900.98351
47506.20913
43325.52048
39395.38298
35736.61275
32359.61349
29264.87214
26446.13883
23892.01875
21587.34487
19514.72531
17656.38796
15993.34238
14507.57086
13181.76605
11999.35165
10945.28336
10005.59083
9167.511831
8419.763513
7751.992499
7155.087797
6620.96122
6142.372754
5713.039903
5327.26336
4980.170745
4667.401618
4385.134915
4130.087817
3899.281134
3690.165323
3500.519219
3328.359821
3171.939236
3029.701223
2900.250371
2782.304872
2674.683928
2576.284957
85399.08205
84567.44841
82814.80733
80298.82793
77155.59631
73516.82819
69517.73141
65283.38051
60927.05361
56547.99732
52229.3858
48037.75214
44023.76278
40224.42714
36663.70773
33354.01388
30299.97822
27499.30852
24944.08001
22623.30026
20522.6015
18627.01906
16920.40564
15386.63593
14010.25195
12775.99133
11669.95203
10678.89175
9790.798673
8994.694706
8280.490194
7639.401976
7063.180909
6544.76455
6077.675711
5656.277022
5275.440735
4930.782715
4618.302264
4334.598521
4076.604545
3841.682592
3627.601391
3432.357568
3254.304776
3092.066961
2944.468872
2810.526744
2689.392869
2580.275265
83334.6212
82587.76671
81011.25182
78744.07992
75899.67913
72593.99928
68941.81383
65053.66364
61028.21397
56954.25562
52907.52015
48950.07018
45130.59071
41485.78386
38041.32065
34813.46705
31810.10867
29032.37812
26477.33725
24137.57948
22002.70936
20061.25579
18299.77824
16705.3424
15263.86686
13962.70245
12788.73318
11730.25836
10775.88209
9915.41968
9139.147749
8438.484362
7805.404334
7232.83149
6714.198781
6243.779604
5816.247896
5427.002638
5071.724382
4746.738835
4448.636147
4174.444826
3921.546844
3687.606428
3470.716891
3269.235553
3081.962517
2908.085403
2747.197883
2599.355328
81683.88934
80967.81707
79458.41143
77286.48003
74558.23721
71385.35858
67874.23406
64130.1057
60247.30384
56310.01596
52390.92301
48549.91276
44834.43511
41280.67674
37914.32994
34752.23547
31802.9257
29068.7162
26547.76115
24233.95545
22117.96564
20189.52648
18436.21143
16845.83359
15405.36077
14102.55235
12925.08442
11861.57401
10901.09096
10033.69569
9249.911561
8541.3523
7900.084996
7319.183727
6792.127669
6313.262753
5877.370694
5479.8588
5116.592342
4783.946207
4478.775034
4198.255893
3940.081991
3702.15023
3482.750836
3280.313046
3093.332311
2920.170103
2758.686367
2606.0115
80486.95692
79781.30768
78293.3917
76151.61446
73462.24557
70334.42898
66873.82907
63182.35625
59354.75454
55473.38493
51609.76536
47822.89109
44159.61929
40655.74113
37337.02272
34219.3553
31311.34186
28615.6377
26130.65241
23849.68701
21764.24606
19863.59411
18135.90207
16568.89597
15149.72878
13866.29517
12706.37214
11658.6541
10712.36862
9857.604444
9085.089126
8386.418231
7753.923607
7180.650218
6660.354461
6187.441884
5756.930099
5364.388909
5005.922091
4678.176834
4378.173997
4103.439707
3851.725655
3621.199294
3410.107939
3216.91371
3040.123759
2878.244747
2729.901152
2593.94302
79311.74434
78614.59524
77143.91458
75027.28372
72371.15823
69281.09065
65863.97121
62219.16186
58439.65752
54608.273
50795.29473
47058.7201
43444.9873
39989.70337
36717.4609
33644.20442
30778.42572
28123.26833
25675.93987
23430.37643
21378.08705
19507.91467
17808.69733
16267.51067
14872.21961
13610.2398
12469.98882
11439.80437
10509.43129
9668.784171
8908.972693
8221.580018
7599.230915
7035.064952
6523.090782
6057.906679
5634.760896
5249.425307
4898.271187
4578.090184
4286.135897
4019.924104
3777.377324
3556.462052
3355.399215
3172.466062
3005.957782
2854.282658
2715.940946
2589.51122
78156.56276
77468.05597
76015.51575
73925.34894
71303.55264
68252.88513
64880.42707
61283.73843
57554.57749
53774.49823
50013.30469
46328.39035
42765.45847
39359.29057
36134.29297
33106.16604
30283.51778
27668.65384
25258.87871
23048.55116
21028.36325
19187.91975
17515.55201
15998.88643
14625.60102
13383.54068
12260.96554
11246.7639
10330.46603
9502.533755
8753.944618
8076.778928
7463.589134
6907.970788
6403.929188
5946.4491
5530.825582
5153.13181
4809.75509
4497.697647
4214.108326
3956.591136
3722.830649
3510.720168
3318.290476
3143.59039
2984.77623
2840.13907
2708.046028
2587.066693
77020.56919
76341.33946
74908.28447
72847.43169
70261.10156
67253.15925
63926.86915
60380.78742
56704.39424
52978.18832
49270.96513
45639.36565
42128.50146
38772.54878
35595.46188
32612.89611
29832.92323
27257.51492
24884.39152
22707.50301
20717.64799
18904.94716
17257.29616
15763.0314
14409.57039
13185.36393
12078.52761
11078.45497
10174.70272
9357.989824
8619.559105
7951.583046
7346.990397
6799.375571
6303.149766
5853.245516
5445.281754
5075.245961
4739.726304
4435.547748
4159.914905
3910.223784
3684.038646
3479.136308
3293.335019
3124.617294
2971.094993
2831.068767
2702.975294
2585.488046
75903.35127
75233.91348
73821.72534
71791.38447
69242.34941
66279.1011
63001.45987
59507.73165
55886.12652
52215.63523
48563.96068
44986.9073
41528.91888
38223.52844
35094.34066
32156.85912
29418.32718
26881.06225
24543.12125
22397.7859
20436.68404
18649.53786
17024.92656
15551.04411
14215.88265
13007.77443
11915.3863
10928.04521
10035.83685
9229.403482
8500.470457
7841.198664
7244.857394
6705.117355
6216.571529
5774.248566
5373.800366
5011.271631
4683.192034
4386.310499
4117.767983
3874.785573
3654.875566
3455.672294
3274.963971
3110.726414
2961.112145
2824.458202
2699.288239
2584.34205
74804.55435
74145.26105
72755.58
70755.91066
68245.7076
65328.2766
62101.38065
58660.76622
55095.19181
51481.42418
47886.004
44363.84888
40958.71209
37703.55218
34621.88524
31728.06546
29029.79088
26529.63873
24225.11328
22109.88758
20176.08194
18413.10708
16810.24877
15355.5047
14037.54886
12844.56777
11765.78865
10790.54202
9909.291847
9112.841417
8393.052951
7742.420981
7154.18646
6622.338676
6141.403386
5706.594275
5313.441268
4958.085896
4636.892726
4346.619133
4084.237748
3846.936178
3632.186805
3437.547455
3260.835449
3100.064346
2953.442437
2819.366693
2696.438572
2583.453672
73724.23754
73076.0051
71708.14235
69739.77024
67270.02418
64398.21806
61222.75172
57836.73485
54326.73898
50769.82819
47230.58631
43763.01058
40410.30966
37204.97445
34169.44977
31318.3094
28659.27179
26195.17608
23922.96152
21837.06506
19929.33108
18189.74456
16607.70066
15171.47379
13869.97946
12691.72619
11626.0167
10662.63675
9792.041998
9005.47154
8294.755781
7652.750597
7072.656554
6548.646957
6075.270484
5647.739379
5261.596817
4912.917593
4598.016809
4313.620748
4056.594686
3824.144428
3613.679019
3422.79477
3249.342196
3091.393876
2947.198687
2815.222906
2694.12141
2582.731678
72662.44075
72024.60546
70678.63988
68741.75271
66312.6005
63486.5492
60362.52084
57031.01873
53577.16924
50076.28777
46592.58026
43179.09943
39878.14073
36721.3768
33731.19199
30921.92288
28301.67786
25872.50527
23631.88078
21574.65693
19692.35683
17975.71018
16413.89455
14995.86095
13710.41744
12546.66447
11493.84451
10542.23154
9682.290086
8905.5801
8204.050966
7570.623042
6998.715007
6482.424507
6016.466858
5595.927274
5216.433293
4873.928924
4564.771137
4285.582061
4033.241309
3804.970052
3598.148241
3410.430553
3239.711757
3084.124934
2941.95887
2811.740558
2692.171052
2582.12314
71618.04456
70990.54799
69666.37202
67761.62157
65371.95136
62592.13234
59518.29642
56240.77799
52842.46037
49397.30378
45968.46258
42608.16963
39357.98369
36249.06629
33303.52745
30535.62304
27953.39352
25558.58043
23349.22629
21320.01289
19462.75194
17768.68673
16226.81993
14826.7554
13557.23572
12407.85849
11367.97293
10428.05233
9578.873557
8811.999692
8119.703541
7494.844015
6931.061592
6422.361073
5963.594852
5549.736605
5176.485644
4839.686266
4535.746293
4261.218415
4013.023996
3788.399475
3584.739462
3399.756768
3231.399725
3077.843287
2937.428534
2808.729144
2690.484503
2581.596851
70590.74674
69973.45802
68670.80627
66798.10904
64447.08421
61713.06458
58688.58501
55464.30529
52120.73788
48730.51405
45355.75572
42047.88788
38847.74612
35785.99273
32884.46901
30157.59605
27612.60783
25251.69148
23073.2786
21071.6392
19239.35025
17567.40047
16045.46252
14663.09162
13409.54876
12274.39204
11247.4984
10319.27705
9480.907265
8723.912996
8040.848792
7424.554625
6868.742934
6367.506433
5915.614918
5508.146033
5140.705602
4809.191997
4510.00229
4239.680267
3995.20307
3773.801696
3572.933114
3390.35793
3224.080334
3072.306084
2933.432243
2806.0707
2688.994488
2581.131562
69580.26888
68973.02893
67692.46923
65850.39446
63537.4155
60848.46864
57873.41651
54700.70228
51411.0299
48074.89259
44753.39743
41497.17357
38346.34547
35331.08386
32473.33477
29786.56186
27278.33011
24951.06638
22803.04521
20828.68018
19021.11503
17371.10039
15868.97714
14504.20977
13266.6064
12145.67657
11131.80092
10215.35514
9387.782039
8640.743235
7966.792084
7358.990705
6810.970974
6316.976737
5871.683153
5470.271726
5108.277264
4781.680619
4486.83205
4220.336783
3979.218483
3760.715384
3562.349138
3381.928988
3217.512502
3067.334496
2929.842354
2803.681729
2687.655147
2580.713193
68586.34893
67989.54118
66730.37545
64918.1503
62643.32607
59997.94349
57071.54646
53949.95887
50712.83178
47429.91431
44160.84526
40955.47209
37853.22141
34884.1111
32069.20103
29421.94992
26949.99877
24656.10187
22537.99562
20590.75998
18807.56081
17179.36143
15696.90533
14349.73059
13127.99916
12021.39411
11020.45166
10115.8537
9299.006105
8561.880092
7896.959844
7297.513912
6757.100169
6270.1074
5831.13186
5435.461879
5078.581012
4756.559798
4465.720301
4202.737147
3964.68511
3748.81955
3552.726085
3374.26435
3211.53461
3062.806735
2926.571057
2801.503608
2686.433411
2580.331383
67609.73557
67022.76228
65784.00225
64001.10906
61764.00101
59161.20863
56282.63267
53211.68724
50026.28982
46795.32477
43577.78563
40422.57977
37368.44214
34444.52223
31671.68865
29063.41782
26627.47873
24366.31865
22277.79409
20357.51416
18598.37239
16991.98599
15528.94526
14199.40591
12993.42124
11901.15425
10913.10176
10020.32638
9214.160523
8486.865072
7830.887048
7239.599131
6706.626332
6226.346826
5793.447284
5403.193756
5051.1275
4733.383626
4446.270215
4186.550781
3951.310237
3737.87067
3543.865503
3367.207493
3206.023517
3058.630071
2923.551886
2799.492523
2685.304978
2579.978612
66649.28689
66071.81658
64853.10075
63099.27175
60898.96284
58338.35512
55506.43947
52485.26185
49351.01463
46171.44648
43004.59792
39898.59938
36891.45717
34011.93954
31280.56585
28710.73053
26310.4388
24081.48602
22022.27068
20128.61572
18393.32992
16808.60302
15364.87713
14052.90254
12862.62173
11784.65271
10809.47382
9928.439687
9132.945547
8415.296617
7768.144068
7184.797275
6659.052787
6185.239089
5758.159682
5373.049672
5025.555287
4711.805979
4428.177396
4171.499672
3938.873233
3727.686281
3535.619291
3360.635803
3200.888001
3054.735694
2920.735272
2797.615503
2684.251347
2579.649104
65704.59165
65136.45522
63937.42913
62212.87618
60047.98516
57529.3842
54742.75532
51770.48104
48686.50878
45557.47283
42440.50122
39382.88002
36421.98353
33586.18388
30895.65528
28364.03664
25998.5842
23801.44179
21771.39186
19903.90143
18192.37681
16629.04342
15204.58982
13910.02276
12735.46272
11671.65103
10709.35159
9839.89386
9054.968771
8346.818675
7708.321186
7132.72136
6613.985165
6146.403518
5724.899795
5344.690548
5001.531143
4691.55173
4411.201717
4157.37854
3927.201626
3718.124003
3527.871979
3354.457525
3196.056744
3051.069866
2918.082612
2795.847001
2683.258284
2579.338437
64775.39988
64216.43294
63037.06468
61340.9443
59210.85172
56733.51354
53991.79807
51067.15459
48032.59302
44953.23165
41885.30224
38875.26259
35959.86954
33167.10787
30516.98215
28022.89559
25691.78219
23526.07337
21524.83652
19683.2489
17995.36165
16453.17014
15047.95533
13770.59631
12611.70458
11561.93071
10612.4107
9754.417104
8979.923974
8281.116054
7651.090919
7083.054206
6571.094994
6109.528172
5693.368455
5317.840721
4978.805732
4672.401643
4395.155743
4144.026039
3916.160502
3709.072863
3520.538172
3348.601418
3191.474392
3047.590852
2915.563869
2794.167078
2682.314626
2579.043131
63861.46477
63311.52008
62152.10656
60483.25381
58387.62725
55950.54591
53253.3826
50375.17068
47389.09911
44358.56389
41338.85053
38375.60591
35504.98274
32754.67836
30144.47615
27687.16157
25389.92654
23255.51031
21282.50468
19466.55757
17802.08556
16280.8649
14894.74356
13634.47337
12491.13648
11455.29048
10518.42642
9671.799379
8907.545912
8217.971556
7596.168123
7035.526564
6530.104601
6074.369053
5663.317699
5292.275446
4957.17742
4654.178989
4379.897749
4131.313447
3905.642553
3700.44476
3513.54491
3343.010993
3187.097058
3044.265579
2913.155267
2792.559975
2681.411573
2578.760449
5634.543392
5267.831051
4936.482341
4636.74103
4365.291841
4119.13777
3895.562216
3692.169623
3506.832734
3337.641451
3182.889961
3041.067836
2910.837949
2791.01318
2680.542128
2578.488208
)
;

boundaryField
{
    front_top
    {
        type            wedge;
    }
    front_middle
    {
        type            wedge;
    }
    front_bottom
    {
        type            wedge;
    }
    back_top
    {
        type            wedge;
    }
    back_middle
    {
        type            wedge;
    }
    back_bottom
    {
        type            wedge;
    }
    axis_top
    {
        type            symmetryPlane;
    }
    axis_middle
    {
        type            symmetryPlane;
    }
    axis_bottom
    {
        type            symmetryPlane;
    }
    wall_top
    {
        type            calculated;
        value           nonuniform 0();
    }
    wall_middle
    {
        type            calculated;
        value           uniform 2530.329233;
    }
    wall_bottom
    {
        type            calculated;
        value           uniform 2530.329233;
    }
    inlet
    {
        type            calculated;
        value           nonuniform 0();
    }
    outlet
    {
        type            calculated;
        value           nonuniform 0();
    }
    procBoundary2to1
    {
        type            processor;
        value           nonuniform List<scalar> 
51
(
62962.93791
62422.42273
61281.64346
59639.58456
57578.43325
55180.28426
52526.88153
49694.96896
46755.96458
43773.32283
40801.01047
37883.78614
35057.36156
32349.00397
29777.81008
27356.74275
25092.96256
22989.41185
21044.31393
19253.95684
17612.45645
16112.11617
14744.83904
13501.59783
12373.59285
11351.63754
10427.19279
9591.81749
8837.597674
8157.07567
7543.304864
6989.860426
6490.777584
6040.675418
6040.675418
5606.875813
5244.331874
4916.586549
4619.971769
4351.239225
4107.416
3885.85071
3684.191233
3500.35639
3332.456922
3178.825264
3037.976652
2908.596837
2789.516696
2679.7007
2578.224668
)
;
    }
    procBoundary2to3
    {
        type            processor;
        value           nonuniform List<scalar> 
51
(
96779.50056
93242.09704
93242.09704
90887.30902
87531.53769
83379.22166
78631.42415
73485.95076
68124.16339
62705.21281
57360.57275
52194.62495
47284.67978
42684.34104
38425.08261
34521.25771
30973.0939
27771.14864
24898.12416
22332.70744
20050.36478
18025.69065
16233.47414
14649.51303
13250.75543
12016.01168
10926.09144
9963.578571
9112.839981
8360.160464
7693.377331
7101.709372
6575.936196
6107.749976
5690.134141
5316.748243
4982.266808
4681.947228
4411.674268
4167.929563
3947.575053
3747.896527
3566.52639
3401.406995
3250.730584
3112.914728
2986.555925
2870.444844
2763.496818
2664.777096
2573.445581
)
;
    }
}


// ************************************************************************* //
