/*--------------------------------*- C++ -*----------------------------------*\
  =========                 |
  \\      /  F ield         | OpenFOAM: The Open Source CFD Toolbox
   \\    /   O peration     | Website:  https://openfoam.org
    \\  /    A nd           | Version:  7
     \\/     M anipulation  |
\*---------------------------------------------------------------------------*/
FoamFile
{
    version     2.0;
    format      ascii;
    class       volScalarField;
    location    "0.0003";
    object      thermo:alpha;
}
// * * * * * * * * * * * * * * * * * * * * * * * * * * * * * * * * * * * * * //

dimensions      [1 -1 -1 0 0 0 0];

internalField   nonuniform List<scalar> 
1167
(
0.0001197301028
0.0001197015827
0.0001196884413
0.0001196602622
0.0001196186303
0.0001195644579
0.0001194939651
0.0001194123425
0.0001193230314
0.0001192168918
0.0001191011816
0.0001189708735
0.0001188263244
0.0001186739697
0.0001185078906
0.000118326532
0.0001181271231
0.0001179224969
0.0001177045283
0.0001174769286
0.0001172345053
0.0001169866873
0.0001167221507
0.0001164535524
0.0001161817703
0.0001158955746
0.0001156057001
0.0001153156533
0.000115016283
0.0001147171237
0.0001144132637
0.0001141092747
0.0001138041932
0.0001135065292
0.0001132053173
0.0001129041019
0.0001126048503
0.0001123146977
0.0001120267418
0.0001117432251
0.0001114666861
0.0001111912177
0.000110925369
0.0001106689637
0.0001104142065
0.0001101665735
0.0001099199226
0.0001096812048
0.0001094511044
0.0001092292621
0.0001090101226
0.000119673085
0.0001196604697
0.0001196334203
0.000119593466
0.0001195411329
0.0001194715024
0.0001193949348
0.0001193075774
0.0001192054779
0.0001190940954
0.0001189681159
0.0001188287327
0.0001186816608
0.0001185220208
0.000118347971
0.0001181547075
0.0001179560289
0.00011774664
0.000117524826
0.000117291395
0.0001170488989
0.0001167932738
0.0001165329163
0.0001162633792
0.000115982637
0.0001157001304
0.0001154136565
0.0001151183182
0.0001148236875
0.0001145193927
0.0001142185439
0.0001139105897
0.0001136092029
0.0001133080833
0.0001130057996
0.0001127002902
0.000112403263
0.0001121115436
0.0001118201229
0.0001115379627
0.0001112542324
0.0001109798905
0.0001107151577
0.0001104538782
0.0001101983288
0.000109945237
0.0001096995331
0.0001094631959
0.0001092359108
0.0001090121873
0.0001196446161
0.0001196326341
0.0001196069501
0.0001195689686
0.0001195170221
0.0001194507944
0.0001193797184
0.0001192952816
0.0001191980552
0.0001190919154
0.0001189717965
0.0001188387438
0.0001186981857
0.0001185471474
0.000118380859
0.0001181974129
0.0001180064457
0.0001178087349
0.0001175946857
0.0001173738803
0.0001171387757
0.0001168961704
0.0001166424658
0.0001163800181
0.000116114837
0.0001158399131
0.0001155572156
0.0001152724783
0.000114979616
0.0001146839164
0.000114383812
0.0001140805985
0.0001137760384
0.0001134771695
0.0001131716178
0.000112864013
0.0001125582624
0.0001122600561
0.0001119599661
0.0001116655008
0.0001113733367
0.0001110847526
0.0001108054918
0.0001105326621
0.0001102622873
0.0001099968983
0.0001097374222
0.0001094885254
0.0001092500249
0.0001090166315
0.000119616181
0.0001196049194
0.0001195807616
0.0001195450307
0.0001194939268
0.0001194325088
0.0001193663991
0.0001192857382
0.0001191941348
0.0001190940711
0.00011898121
0.0001188555805
0.0001187227308
0.0001185823331
0.0001184248106
0.0001182542887
0.0001180728415
0.0001178866103
0.0001176859531
0.0001174781545
0.0001172565807
0.0001170289441
0.0001167875165
0.0001165420752
0.0001162867188
0.0001160214346
0.0001157548269
0.0001154806487
0.0001152002679
0.0001149152724
0.0001146237135
0.0001143301883
0.0001140301598
0.0001137302109
0.0001134334863
0.0001131290598
0.0001128199007
0.0001125126887
0.0001122110715
0.0001119032787
0.0001116009793
0.0001112957403
0.0001109945714
0.0001107006397
0.0001104066105
0.000110117174
0.0001098276016
0.0001095492266
0.0001092833
0.000109026448
0.0001195879876
0.000119577589
0.0001195552781
0.0001195200767
0.0001194728075
0.0001194176286
0.000119356517
0.0001192810867
0.000119196347
0.0001191037262
0.0001190004329
0.0001188839801
0.0001187607264
0.0001186312475
0.0001184877848
0.0001183342791
0.000118165102
0.0001179911552
0.0001178111981
0.0001176164035
0.0001174178137
0.0001172035188
0.0001169868826
0.000116754714
0.0001165211247
0.0001162777122
0.0001160242788
0.000115770615
0.0001155087848
0.0001152423896
0.0001149691546
0.0001146919186
0.0001144089278
0.0001141226661
0.0001138312675
0.0001135427636
0.0001132477196
0.0001129474867
0.0001126413316
0.0001123379174
0.0001120300955
0.0001117182563
0.0001114029646
0.0001110811003
0.0001107599525
0.0001104323012
0.0001100978868
0.0001097535215
0.0001094119681
0.0001090731342
0.000119564858
0.0001195546563
0.0001195316383
0.0001194961048
0.0001194497995
0.0001193978057
0.0001193369252
0.0001192621918
0.0001191791585
0.0001190883778
0.0001189858152
0.0001188715998
0.0001187506669
0.0001186235714
0.0001184820917
0.0001183310022
0.0001181646753
0.0001179935544
0.0001178167457
0.0001176248566
0.0001174295898
0.0001172184145
0.0001170045332
0.0001167761982
0.0001165452428
0.0001163040994
0.000116055784
0.000115804664
0.0001155446672
0.0001152817908
0.0001150097909
0.0001147355163
0.0001144529514
0.0001141687658
0.0001138767322
0.0001135869789
0.0001132920331
0.0001129909832
0.000112681389
0.0001123738976
0.0001120629615
0.0001117462989
0.0001114274747
0.0001111018181
0.0001107783973
0.0001104512705
0.000110119584
0.0001097782506
0.0001094371504
0.0001090893234
0.0001195477469
0.0001195368252
0.0001195127197
0.0001194770762
0.0001194316347
0.0001193802515
0.0001193174326
0.0001192424717
0.000119159194
0.0001190681394
0.000118963391
0.0001188488009
0.000118727454
0.0001185999071
0.0001184559275
0.0001183021972
0.0001181352057
0.0001179633861
0.0001177836343
0.0001175909154
0.0001173927113
0.0001171803449
0.0001169641373
0.000116733644
0.0001165003634
0.0001162593398
0.0001160058351
0.0001157518584
0.0001154903941
0.0001152229266
0.0001149491093
0.0001146696107
0.0001143847237
0.0001140944903
0.0001137994853
0.0001135064803
0.0001132041798
0.0001128953007
0.0001125818109
0.0001122707236
0.0001119522046
0.0001116334791
0.0001113093705
0.0001109852379
0.0001106658694
0.0001103416452
0.0001100172056
0.0001096919227
0.0001093738131
0.0001090599333
0.0001195292743
0.000119517968
0.0001194937322
0.0001194578985
0.0001194140026
0.0001193623501
0.0001192974107
0.0001192220763
0.0001191383608
0.0001190468364
0.0001189395872
0.0001188243991
0.0001187024177
0.0001185724574
0.0001184273191
0.0001182705146
0.0001181026422
0.0001179299624
0.0001177468263
0.000117553141
0.00011735137
0.0001171379555
0.0001169179916
0.0001166863722
0.0001164491076
0.0001162098029
0.0001159521063
0.0001156936762
0.0001154307563
0.0001151584073
0.0001148828098
0.0001145978859
0.0001143108281
0.0001140145735
0.0001137170593
0.0001134197748
0.0001131127945
0.0001127975601
0.0001124823889
0.0001121694152
0.0001118481678
0.0001115314819
0.0001112074392
0.0001108897279
0.0001105778469
0.0001102632247
0.0001099503201
0.0001096418976
0.0001093428044
0.0001090490991
0.0001195104765
0.0001194991194
0.0001194747722
0.0001194390272
0.00011939645
0.0001193442166
0.0001192775662
0.0001192019161
0.0001191178483
0.0001190245969
0.0001189163123
0.000118800644
0.0001186781633
0.0001185455961
0.000118399873
0.0001182402996
0.0001180718065
0.000117898489
0.0001177123895
0.0001175180485
0.0001173131669
0.0001170990366
0.0001168757953
0.0001166433624
0.000116402603
0.0001161603135
0.0001159035849
0.0001156412529
0.0001153770213
0.0001151003519
0.0001148231496
0.0001145334562
0.00011424443
0.0001139431808
0.0001136438095
0.000113341457
0.0001130324526
0.0001127137017
0.0001123986589
0.0001120834611
0.0001117648628
0.0001114491893
0.0001111311095
0.0001108209722
0.0001105157223
0.000110211565
0.0001099083912
0.0001096121316
0.0001093251826
0.0001090431134
0.0001194916753
0.0001194802801
0.0001194558493
0.0001194217367
0.0001193790154
0.0001193248632
0.0001192579915
0.0001191821148
0.0001190977975
0.0001190024197
0.0001188938235
0.0001187778303
0.0001186550181
0.0001185201419
0.0001183740509
0.0001182120912
0.0001180432159
0.0001178695007
0.0001176808965
0.0001174861232
0.0001172785948
0.0001170639803
0.0001168379277
0.0001166048928
0.0001163611009
0.000116115655
0.0001158599539
0.0001155946703
0.0001153280519
0.0001150488897
0.0001147682471
0.000114476634
0.000114183473
0.0001138809291
0.0001135805798
0.0001132746086
0.0001129625861
0.0001126444909
0.0001123310984
0.0001120157396
0.0001117010497
0.0001113879229
0.000111076003
0.0001107728653
0.000110473471
0.0001101773087
0.0001098811178
0.0001095929482
0.0001093138317
0.0001090392443
0.0001194728698
0.0001194614477
0.0001194373777
0.0001194045079
0.0001193616857
0.000119305684
0.0001192386688
0.0001191626404
0.0001190781677
0.0001189808172
0.0001188720365
0.0001187558555
0.0001186328561
0.0001184959149
0.0001183492249
0.000118185566
0.0001180164605
0.0001178425064
0.0001176517102
0.0001174566403
0.0001172468055
0.0001170318057
0.000116803282
0.0001165697338
0.0001163252576
0.0001160749579
0.0001158184886
0.000115552328
0.000115282499
0.0001150023107
0.0001147182647
0.0001144256453
0.0001141291254
0.0001138259284
0.0001135252897
0.0001132169469
0.0001129031912
0.0001125866846
0.0001122756786
0.0001119612754
0.0001116507276
0.0001113405059
0.0001110341134
0.0001107367844
0.0001104421203
0.000110152069
0.0001098611212
0.0001095789203
0.000109305562
0.0001090364338
0.0001194540599
0.0001194426198
0.0001194202497
0.0001193873279
0.0001193440788
0.0001192866451
0.0001192195573
0.0001191434291
0.0001190588743
0.0001189596691
0.000118850796
0.0001187345225
0.0001186114321
0.0001184725931
0.0001183240039
0.000118160222
0.0001179909842
0.0001178153198
0.0001176240827
0.000117428803
0.0001172168584
0.0001170015573
0.0001167707765
0.0001165367988
0.0001162918729
0.0001160369745
0.000115779872
0.0001155130115
0.0001152403331
0.0001149594176
0.0001146724625
0.0001143792895
0.0001140801076
0.0001137768611
0.0001134765362
0.0001131668107
0.0001128522977
0.0001125379504
0.0001122296916
0.0001119168339
0.0001116102499
0.0001113028756
0.0001110012443
0.0001107087111
0.000110417865
0.0001101323855
0.0001098457027
0.0001095680887
0.0001092991611
0.0001090342541
0.0001194358235
0.0001194254278
0.0001194031374
0.0001193701837
0.0001193251924
0.0001192677093
0.0001192005893
0.000119124427
0.0001190397544
0.0001189388358
0.0001188299271
0.0001187136179
0.0001185901065
0.0001184498767
0.0001182994728
0.0001181356271
0.0001179663157
0.0001177887966
0.0001175974367
0.0001174004108
0.0001171880819
0.0001169716369
0.0001167396569
0.0001165043329
0.0001162600447
0.0001160025405
0.0001157432639
0.0001154759036
0.0001152006912
0.0001149193276
0.0001146299351
0.0001143365948
0.0001140353961
0.0001137325613
0.0001134318209
0.0001131226146
0.0001128080287
0.0001124960686
0.0001121904408
0.0001118795143
0.000111576578
0.0001112718348
0.0001109742487
0.000110685729
0.0001103980402
0.0001101158916
0.0001098331151
0.0001095592559
0.0001092939503
0.0001090324819
0.0001194187397
0.0001194083379
0.0001193860342
0.0001193530618
0.000119306349
0.0001192488382
0.0001191817107
0.0001191055416
0.000119019137
0.0001189182025
0.0001188092871
0.0001186929802
0.0001185677398
0.0001184275017
0.0001182753467
0.0001181114748
0.0001179421518
0.0001177628306
0.0001175713918
0.0001173725227
0.0001171600492
0.0001169416687
0.0001167094598
0.000116472082
0.0001162293132
0.0001159696651
0.0001157081646
0.0001154404873
0.0001151630716
0.0001148815175
0.0001145901583
0.0001142969664
0.0001139943124
0.0001136922419
0.0001133908586
0.0001130832494
0.0001127690373
0.0001124595445
0.0001121553003
0.0001118475337
0.0001115479158
0.0001112455479
0.0001109514668
0.0001106663756
0.0001103813634
0.0001101020208
0.0001098225266
0.0001095518208
0.0001092895602
0.0001090309878
0.000119401652
0.0001193912462
0.0001193689342
0.0001193347476
0.0001192875267
0.000119230017
0.000119162878
0.0001190867162
0.0001189986011
0.0001188976785
0.0001187887763
0.0001186724853
0.0001185455399
0.0001184053152
0.000118251449
0.000118087587
0.0001179182718
0.0001177372024
0.000117545739
0.0001173450771
0.0001171325083
0.0001169122806
0.0001166799111
0.0001164406031
0.0001161988185
0.0001159377846
0.0001156742922
0.0001154064573
0.0001151271583
0.000114845637
0.0001145526978
0.0001142599453
0.0001139562673
0.0001136552455
0.0001133536183
0.0001130477237
0.0001127342109
0.0001124271767
0.0001121243696
0.0001118195403
0.0001115226021
0.0001112227021
0.0001109317022
0.0001106496001
0.0001103669215
0.0001100900022
0.0001098133534
0.0001095453822
0.0001092857607
0.0001090296952
0.0001193845607
0.0001193741519
0.0001193518337
0.0001193159435
0.0001192687121
0.0001192112128
0.0001191440651
0.0001190679178
0.0001189781033
0.000118877202
0.0001187683235
0.0001186520598
0.0001185234291
0.0001183832333
0.0001182276826
0.0001180638669
0.0001178945671
0.0001177117902
0.0001175203416
0.0001173179345
0.0001171053429
0.0001168833187
0.0001166508804
0.0001164097318
0.0001161661164
0.0001159067309
0.0001156414544
0.0001153736252
0.0001150927114
0.0001148113763
0.0001145172564
0.0001142241499
0.0001139208289
0.0001136210954
0.0001133194811
0.0001130140559
0.0001127027438
0.0001123981203
0.0001120967358
0.0001117946329
0.0001114995538
0.0001112024763
0.0001109142257
0.0001106347757
0.0001103541672
0.0001100793833
0.0001098052473
0.0001095396914
0.0001092824017
0.0001090285522
0.0001193674664
0.0001193570551
0.0001193334084
0.0001192971392
0.0001192498994
0.0001191924133
0.0001191252796
0.0001190491311
0.0001189576231
0.0001188567488
0.0001187479008
0.0001186316724
0.0001185013695
0.0001183612143
0.0001182040199
0.0001180402456
0.0001178709806
0.000117686544
0.0001174951231
0.0001172910184
0.0001170784459
0.0001168546961
0.0001166222565
0.0001163793718
0.0001161340579
0.0001158764026
0.0001156095249
0.0001153412482
0.0001150595734
0.0001147770524
0.0001144835934
0.0001141897996
0.0001138876324
0.000113589326
0.000113287933
0.0001129831311
0.0001126739972
0.0001123717163
0.0001120717027
0.0001117721337
0.0001114787751
0.0001111842647
0.0001108984996
0.000110621439
0.0001103426928
0.0001100698294
0.0001097979542
0.0001095345718
0.0001092793803
0.0001090275243
0.0001193503699
0.0001193391505
0.0001193146098
0.0001192783337
0.0001192311026
0.0001191736155
0.0001191064989
0.0001190294323
0.0001189371525
0.0001188363092
0.0001187274965
0.0001186113094
0.0001184793442
0.0001183380514
0.0001181804171
0.0001180166962
0.0001178474825
0.0001176614249
0.0001174700461
0.0001172643012
0.0001170517728
0.0001168263693
0.0001165939855
0.0001163499918
0.0001161025802
0.000115845508
0.0001155784226
0.0001153088378
0.0001150276183
0.0001147441418
0.0001144515083
0.0001141572583
0.000113856374
0.0001135595859
0.0001132585614
0.000112954482
0.0001126474804
0.0001123474472
0.0001120487582
0.0001117515551
0.0001114597957
0.0001111676435
0.0001108841523
0.000110609113
0.0001103322244
0.0001100611122
0.000109791299
0.0001095298995
0.0001092766227
0.000109026586
0.000119331804
0.0001193203558
0.0001192958101
0.0001192595276
0.0001192123109
0.0001191548189
0.000119087721
0.0001190089625
0.0001189167022
0.0001188158814
0.0001187071062
0.0001185906182
0.0001184573636
0.000118314432
0.0001181568601
0.0001179932048
0.0001178230048
0.0001176364022
0.0001174450894
0.0001172377553
0.000117025298
0.0001167983257
0.0001165660361
0.0001163221938
0.0001160716401
0.0001158148395
0.0001155480836
0.0001152773648
0.0001149967381
0.0001147125015
0.0001144208387
0.0001141263027
0.0001138268162
0.0001135315782
0.0001132310468
0.0001129277282
0.0001126228007
0.0001123249203
0.0001120275042
0.0001117325375
0.0001114422552
0.0001111522893
0.0001108709004
0.000110597442
0.0001103225526
0.0001100530571
0.0001097851487
0.0001095255817
0.0001092740743
0.0001090257189
0.0001193130111
0.0001193015605
0.0001192770099
0.0001192407266
0.0001191935197
0.0001191360314
0.0001190689457
0.0001189884971
0.0001188962674
0.0001187954824
0.0001186867497
0.0001185686061
0.0001184354099
0.0001182908436
0.0001181333428
0.0001179697639
0.0001177979815
0.0001176114654
0.0001174198587
0.000117211355
0.0001169990064
0.0001167705254
0.0001165383887
0.0001162947668
0.0001160412042
0.0001157847733
0.0001155184598
0.0001152467541
0.0001149668619
0.000114682004
0.0001143914286
0.0001140967384
0.0001137987132
0.0001135050536
0.0001132050878
0.0001129025624
0.0001125996674
0.000112303828
0.0001120076331
0.0001117147744
0.0001114258805
0.0001111379586
0.0001108585315
0.000110586547
0.000110313522
0.0001100455345
0.0001097794041
0.0001095215482
0.0001092716937
0.0001090249088
0.0001192942184
0.0001192827653
0.0001192582101
0.000119221942
0.00011917473
0.0001191172591
0.0001190501736
0.0001189680366
0.0001188758392
0.0001187750923
0.0001186664057
0.0001185466102
0.0001184134768
0.0001182672835
0.0001181098616
0.0001179463912
0.0001177730213
0.0001175866089
0.0001173934682
0.0001171850925
0.0001169720029
0.000116742957
0.0001165103653
0.0001162676916
0.0001160123656
0.000115755273
0.0001154895173
0.0001152169374
0.000114937879
0.0001146525337
0.0001143631232
0.000114068395
0.000113771869
0.0001134798013
0.000113180446
0.0001128787322
0.0001125778058
0.0001122839238
0.0001119889001
0.0001116980387
0.000111410457
0.0001111244603
0.0001108468792
0.0001105762807
0.0001103050103
0.0001100384428
0.0001097739878
0.000109517745
0.0001092694489
0.000109024145
0.0001192754266
0.0001192639712
0.0001192394183
0.0001192031592
0.0001191559426
0.00011909849
0.0001190305827
0.0001189475815
0.0001188554181
0.0001187547113
0.0001186460734
0.0001185246301
0.0001183915636
0.0001182437506
0.0001180864254
0.0001179230649
0.0001177481214
0.0001175618314
0.000117367183
0.0001171589639
0.0001169444377
0.0001167156131
0.0001164816952
0.0001162409529
0.0001159844604
0.0001157263046
0.0001154611878
0.0001151878511
0.000114909705
0.0001146239868
0.000114335799
0.0001140411323
0.0001137461186
0.0001134554672
0.0001131569265
0.0001128560306
0.0001125570101
0.0001122650098
0.0001119711135
0.0001116821511
0.0001113958158
0.000111111645
0.0001108358204
0.0001105665287
0.0001102969229
0.0001100317029
0.0001097688394
0.0001095141295
0.0001092673149
0.0001090234188
0.0001192566365
0.0001192451793
0.0001192206429
0.0001191843791
0.000119137165
0.0001190797251
0.0001190101273
0.0001189271349
0.0001188350049
0.00011873434
0.000118625753
0.0001185026661
0.0001183696703
0.0001182202499
0.0001180630374
0.0001178997821
0.0001177232813
0.0001175371533
0.000117341002
0.0001171329678
0.0001169170489
0.0001166884886
0.0001164533096
0.000116214538
0.0001159569618
0.0001156978364
0.0001154334285
0.0001151594493
0.0001148822664
0.0001145962967
0.0001143093471
0.00011401483
0.0001137213209
0.0001134311966
0.0001131343662
0.0001128342873
0.0001125371125
0.0001122469254
0.0001119541279
0.0001116669677
0.0001113818223
0.0001110993937
0.0001108252493
0.0001105571999
0.0001102891842
0.0001100252522
0.0001097639111
0.0001095106684
0.0001092652718
0.0001090227236
0.0001131126297
0.0001128133796
0.000112517976
0.00011222954
0.0001119378017
0.0001116523728
0.0001113683683
0.0001110876112
0.0001108150792
0.0001105482221
0.0001102817344
0.0001100190409
0.000109759165
0.0001095073348
0.000109263304
0.000109022054
)
;

boundaryField
{
    front_top
    {
        type            wedge;
    }
    front_middle
    {
        type            wedge;
    }
    front_bottom
    {
        type            wedge;
    }
    back_top
    {
        type            wedge;
    }
    back_middle
    {
        type            wedge;
    }
    back_bottom
    {
        type            wedge;
    }
    axis_top
    {
        type            symmetryPlane;
    }
    axis_middle
    {
        type            symmetryPlane;
    }
    axis_bottom
    {
        type            symmetryPlane;
    }
    wall_top
    {
        type            calculated;
        value           nonuniform 0();
    }
    wall_middle
    {
        type            calculated;
        value           uniform 0.0001089022317;
    }
    wall_bottom
    {
        type            calculated;
        value           uniform 0.0001089022317;
    }
    inlet
    {
        type            calculated;
        value           nonuniform 0();
    }
    outlet
    {
        type            calculated;
        value           nonuniform 0();
    }
    procBoundary2to1
    {
        type            processor;
        value           nonuniform List<scalar> 
51
(
0.0001192378574
0.0001192264106
0.0001192018705
0.0001191656026
0.000119118406
0.0001190609653
0.0001189896785
0.0001189067162
0.0001188146038
0.0001187139795
0.0001186054456
0.000118480719
0.0001183472652
0.0001181967952
0.0001180396843
0.0001178765436
0.0001176985044
0.0001175125523
0.0001173149255
0.0001171071303
0.0001168898353
0.0001166615946
0.000116425202
0.0001161865482
0.0001159298498
0.0001156698638
0.0001154061995
0.0001151316784
0.0001148554965
0.0001145693523
0.0001142836714
0.0001139893579
0.0001136973546
0.0001134077798
0.0001134077798
0.0001130916039
0.0001127931707
0.0001124994878
0.0001122127474
0.0001119220319
0.0001116382731
0.000111355367
0.0001110762211
0.0001108052443
0.000110539537
0.0001102745254
0.0001100130291
0.0001097545706
0.0001095041075
0.0001092613989
0.0001090214057
)
;
    }
    procBoundary2to3
    {
        type            processor;
        value           nonuniform List<scalar> 
51
(
0.0001197613381
0.0001197165408
0.0001197165408
0.0001196874634
0.0001196444891
0.0001195886052
0.0001195182423
0.0001194320144
0.0001193417431
0.0001192324136
0.0001191133033
0.0001189802169
0.0001188316622
0.000118675238
0.0001185048558
0.0001183185803
0.000118114613
0.0001179056373
0.0001176820611
0.0001174503846
0.000117202249
0.0001169487042
0.000116680969
0.0001164071523
0.0001161304778
0.0001158441429
0.0001155517734
0.0001152584996
0.0001149594171
0.000114658298
0.0001143560117
0.0001140513988
0.0001137490352
0.0001134542437
0.0001131545052
0.000112855104
0.0001125601846
0.0001122744493
0.0001119894228
0.0001117105497
0.0001114373439
0.0001111663512
0.000110904713
0.0001106521978
0.0001104004395
0.0001101560542
0.0001099119279
0.0001096756944
0.0001094476571
0.0001092274883
0.0001090096351
)
;
    }
}


// ************************************************************************* //
