/*--------------------------------*- C++ -*----------------------------------*\
  =========                 |
  \\      /  F ield         | OpenFOAM: The Open Source CFD Toolbox
   \\    /   O peration     | Website:  https://openfoam.org
    \\  /    A nd           | Version:  7
     \\/     M anipulation  |
\*---------------------------------------------------------------------------*/
FoamFile
{
    version     2.0;
    format      ascii;
    class       volVectorField;
    location    "0.0003";
    object      U;
}
// * * * * * * * * * * * * * * * * * * * * * * * * * * * * * * * * * * * * * //

dimensions      [0 1 -1 0 0 0 0];

internalField   nonuniform List<vector> 
1167
(
(-0.0002757551361 5.412238615e-19 -0.0403158726)
(-0.0002481579289 -1.221602146e-17 -0.0423015667)
(-0.0006489660698 -1.251696228e-17 -0.04227428236)
(-0.001026790292 -1.216232221e-17 -0.04221193953)
(-0.001415381753 -1.233196599e-17 -0.04211927159)
(-0.001802310527 -1.248910273e-17 -0.04199760612)
(-0.002184133491 -1.621959225e-17 -0.04184792724)
(-0.0025611613 -1.366869678e-17 -0.04167087145)
(-0.002933740445 -1.734394203e-17 -0.04146685755)
(-0.0033019836 -1.514460872e-17 -0.04123612192)
(-0.003665940149 -1.354174623e-17 -0.04097872457)
(-0.004025607995 -1.329820318e-17 -0.0406945592)
(-0.004380906757 -1.234100174e-17 -0.04038336624)
(-0.004731661354 -1.265927031e-17 -0.04004474618)
(-0.005077593091 -1.313446017e-17 -0.03967817463)
(-0.005418311331 -1.304369009e-17 -0.03928301836)
(-0.005753304912 -1.362162715e-17 -0.03885855429)
(-0.006081933683 -1.499828538e-17 -0.03840398854)
(-0.006403422939 -1.635475678e-17 -0.03791848043)
(-0.006716854695 -1.62687055e-17 -0.03740116437)
(-0.007021163492 -1.672824451e-17 -0.0368511774)
(-0.007315135207 -1.833484854e-17 -0.03626768364)
(-0.00759740122 -2.015540191e-17 -0.03564990024)
(-0.007866439941 -2.107850484e-17 -0.03499712378)
(-0.008120581 -2.088646265e-17 -0.03430875316)
(-0.008358007696 -2.001895037e-17 -0.03358430943)
(-0.008576764262 -1.911026927e-17 -0.03282345255)
(-0.008774766813 -1.914391569e-17 -0.03202598999)
(-0.008949813608 -1.925231705e-17 -0.03119187598)
(-0.009099595699 -1.913457464e-17 -0.03032120112)
(-0.0092217094 -1.94341894e-17 -0.02941416512)
(-0.009313663515 -1.849367095e-17 -0.02847103183)
(-0.009372881372 -1.770694975e-17 -0.02749206223)
(-0.009396694808 -1.558229383e-17 -0.02647741953)
(-0.009382322917 -1.589781742e-17 -0.02542704442)
(-0.009326834596 -1.488166942e-17 -0.02434049625)
(-0.009227089322 -1.389291255e-17 -0.02321676373)
(-0.009079657897 -1.315554734e-17 -0.02205406219)
(-0.008880731956 -1.220874174e-17 -0.02084964099)
(-0.008626038912 -1.142486368e-17 -0.01959965442)
(-0.008310797481 -1.130212955e-17 -0.01829916866)
(-0.00792975255 -1.030602696e-17 -0.01694235321)
(-0.007477321661 -1.008865474e-17 -0.01552288042)
(-0.006947856942 -9.10186588e-18 -0.01403447749)
(-0.006335967498 -8.13808624e-18 -0.01247146162)
(-0.005636794153 -6.598510784e-18 -0.01082897671)
(-0.00484612602 -4.949712408e-18 -0.009102556167)
(-0.003960232104 -3.645269448e-18 -0.007286689705)
(-0.002974798866 -2.824271342e-18 -0.005372538228)
(-0.00188177331 -1.804402757e-18 -0.00334558571)
(-0.0006643155284 -6.48959171e-19 -0.001184101135)
(-0.0002144083361 -1.421622333e-17 -0.0441249006)
(-0.0005607716254 -1.529914989e-17 -0.04410165147)
(-0.000887535243 -9.263640325e-18 -0.04404784982)
(-0.001224178725 -6.340996977e-18 -0.04396793119)
(-0.001560290688 -3.414557384e-18 -0.04386299548)
(-0.001893070454 -4.020110558e-18 -0.04373382591)
(-0.002222960608 -1.15625885e-17 -0.04358092204)
(-0.002550445314 -1.274644506e-17 -0.04340458246)
(-0.002875799642 -1.357943386e-17 -0.04320492896)
(-0.00319923833 -1.545857733e-17 -0.04298190986)
(-0.003520929653 -1.59476761e-17 -0.04273530555)
(-0.003840974075 -1.528454355e-17 -0.04246473561)
(-0.004159391306 -1.388883213e-17 -0.04216966566)
(-0.004476113628 -1.338839731e-17 -0.04184941577)
(-0.004790980173 -1.415313068e-17 -0.04150316773)
(-0.005103727245 -1.380159061e-17 -0.04112997559)
(-0.005413982922 -1.41317975e-17 -0.04072877689)
(-0.005721258526 -1.398893514e-17 -0.04029840386)
(-0.00602493793 -1.471724232e-17 -0.03983759711)
(-0.006324271313 -1.551840703e-17 -0.03934502011)
(-0.00661836246 -1.739511164e-17 -0.03881927274)
(-0.006906158091 -1.966099008e-17 -0.03825890809)
(-0.007186438022 -2.117587468e-17 -0.03766244734)
(-0.007457800694 -2.130557511e-17 -0.03702839612)
(-0.007718651445 -2.035202327e-17 -0.03635526062)
(-0.007967191686 -1.91275336e-17 -0.03564156134)
(-0.008201404837 -1.787289796e-17 -0.0348858465)
(-0.008419044661 -1.64273249e-17 -0.03408670039)
(-0.008617624608 -1.581922001e-17 -0.03324274576)
(-0.008794404869 -1.506405018e-17 -0.03235263891)
(-0.008946379338 -1.461516046e-17 -0.03141504943)
(-0.009070259684 -1.383990742e-17 -0.03042862405)
(-0.009162453167 -1.341510222e-17 -0.02939192511)
(-0.009219031143 -1.308262257e-17 -0.02830333806)
(-0.00923568337 -1.222580004e-17 -0.0271609395)
(-0.009207652459 -1.124081938e-17 -0.02596231993)
(-0.009129646447 -1.012348718e-17 -0.02470436443)
(-0.008995731362 -9.261358514e-18 -0.02338301264)
(-0.008799220443 -7.552613662e-18 -0.0219930436)
(-0.00853259739 -6.849261156e-18 -0.02052797746)
(-0.008187533371 -5.944714152e-18 -0.01898022734)
(-0.007755079259 -5.180017234e-18 -0.0173416042)
(-0.007226114682 -4.503116282e-18 -0.01560424219)
(-0.006592141964 -3.649187373e-18 -0.01376196214)
(-0.005846552464 -2.997937476e-18 -0.01181213193)
(-0.004986521508 -2.715964024e-18 -0.009758316068)
(-0.004015324426 -2.339650494e-18 -0.007614299747)
(-0.002943840098 -1.883793823e-18 -0.005409819755)
(-0.001790952351 -1.393035224e-18 -0.003195635315)
(-0.0005932927259 -2.687896433e-19 -0.001036185334)
(-0.0001765357747 5.41625106e-19 -0.04573510935)
(-0.0004620165693 -6.022420532e-18 -0.04571619034)
(-0.0007319256674 -1.301706097e-18 -0.04567187027)
(-0.001010516561 -3.563234618e-18 -0.04560616907)
(-0.001289483513 -4.870121407e-18 -0.04551996858)
(-0.001566710889 -3.619828123e-18 -0.04541389074)
(-0.001842748307 -4.075170086e-18 -0.04528834837)
(-0.002118182607 -4.074238134e-18 -0.04514358718)
(-0.002393423718 -6.38005984e-18 -0.04497969786)
(-0.002668827489 -8.766395728e-18 -0.04479661828)
(-0.002944711117 -1.005875849e-17 -0.04459413627)
(-0.003221337503 -9.073138442e-18 -0.04437189296)
(-0.003498906932 -1.187454865e-17 -0.04412938557)
(-0.003777552133 -1.28675831e-17 -0.04386597069)
(-0.004057335867 -1.486737334e-17 -0.04358086753)
(-0.004338245697 -1.274000412e-17 -0.04327316093)
(-0.004620189893 -1.261187051e-17 -0.0429418066)
(-0.004902993584 -1.353302395e-17 -0.04258563286)
(-0.005186392269 -1.469192568e-17 -0.04220334501)
(-0.00547002637 -1.599471549e-17 -0.04179352732)
(-0.005753434205 -1.664875381e-17 -0.04135464434)
(-0.006036041478 -1.72836483e-17 -0.04088504227)
(-0.00631715045 -1.79661636e-17 -0.04038294775)
(-0.006595926124 -1.807341141e-17 -0.03984646678)
(-0.006871377369 -1.732508046e-17 -0.0392735825)
(-0.00714233662 -1.614556347e-17 -0.03866215112)
(-0.007407433569 -1.544543567e-17 -0.0380098977)
(-0.007665064699 -1.479831386e-17 -0.03731441113)
(-0.007913360827 -1.415472692e-17 -0.03657313528)
(-0.008150146607 -1.231077535e-17 -0.03578335776)
(-0.008372896488 -1.335434217e-17 -0.0349421936)
(-0.00857868605 -1.371126529e-17 -0.03404655822)
(-0.008764132723 -1.285665746e-17 -0.03309312818)
(-0.008925328543 -1.206916427e-17 -0.03207828154)
(-0.009057756544 -1.11187236e-17 -0.03099800995)
(-0.009156187539 -1.041605356e-17 -0.02984779196)
(-0.009214548006 -1.010121343e-17 -0.02862241982)
(-0.009225751526 -9.950386864e-18 -0.02731578112)
(-0.009181495255 -1.030432871e-17 -0.02592061085)
(-0.009072030538 -9.445966416e-18 -0.02442828802)
(-0.008885953494 -8.186172928e-18 -0.02282881208)
(-0.008610099717 -7.473260228e-18 -0.02111117419)
(-0.008229646988 -7.042683195e-18 -0.01926433297)
(-0.00772846535 -7.241977362e-18 -0.01727876038)
(-0.007089528578 -6.352132536e-18 -0.01514790104)
(-0.006294867672 -4.961107717e-18 -0.01286776499)
(-0.005324268083 -3.555245458e-18 -0.0104318259)
(-0.004151407616 -2.788480045e-18 -0.007819541754)
(-0.002736203852 -1.282766633e-18 -0.004981655381)
(-0.001011656832 -4.610709872e-19 -0.001832666488)
(-0.0001369315464 -6.2423164e-19 -0.04707590939)
(-0.0003583088308 3.527866397e-18 -0.04706093166)
(-0.0005676220675 -3.659474389e-18 -0.04702549801)
(-0.0007840135057 -5.480368474e-18 -0.04697301032)
(-0.001001228051 -8.118692353e-18 -0.04690414835)
(-0.001217709699 -9.296415028e-18 -0.04681937629)
(-0.001433965716 -5.010926109e-18 -0.04671899322)
(-0.001650529073 -6.238136982e-18 -0.0466031569)
(-0.001867783575 -4.369618097e-18 -0.04647188669)
(-0.002086057289 -4.72327164e-18 -0.04632506411)
(-0.002305635762 -5.506634178e-18 -0.04616243391)
(-0.002526750811 -6.092477833e-18 -0.04598360557)
(-0.002749575456 -8.630997371e-18 -0.04578805502)
(-0.002974222123 -6.862581908e-18 -0.04557512711)
(-0.003200742509 -4.450250271e-18 -0.04534403976)
(-0.003429129796 -4.133914846e-18 -0.0450938885)
(-0.003659320576 -5.301224538e-18 -0.04482365142)
(-0.003891196432 -6.807712257e-18 -0.04453219481)
(-0.004124588845 -8.450835051e-18 -0.04421827886)
(-0.004359282579 -9.83582448e-18 -0.0438805602)
(-0.004595019037 -1.045558878e-17 -0.04351759299)
(-0.004831498122 -1.116383077e-17 -0.04312782509)
(-0.005068376702 -1.257074836e-17 -0.04270958904)
(-0.005305266042 -1.12740577e-17 -0.04226108592)
(-0.00554172009 -1.14130838e-17 -0.0417803613)
(-0.005777221578 -1.129361026e-17 -0.04126527494)
(-0.006011159608 -1.150008049e-17 -0.04071345908)
(-0.006242798673 -1.175669306e-17 -0.0401222715)
(-0.00647124121 -1.170691208e-17 -0.03948873682)
(-0.006695377446 -1.224110625e-17 -0.03880947901)
(-0.006913826838 -1.124617745e-17 -0.03808064035)
(-0.007124863167 -1.034729569e-17 -0.03729778406)
(-0.007326322861 -9.76133418e-18 -0.03645577336)
(-0.007515491077 -8.957434509e-18 -0.0355486172)
(-0.007688952827 -9.257116289e-18 -0.03456927022)
(-0.007842401221 -9.286832276e-18 -0.03350936823)
(-0.007970382198 -9.053830438e-18 -0.03235887365)
(-0.00806595268 -8.542833606e-18 -0.03110560455)
(-0.008120220937 -8.001804284e-18 -0.02973461437)
(-0.00812173902 -7.448614061e-18 -0.02822740994)
(-0.008055730836 -7.430530566e-18 -0.02656105179)
(-0.007903194276 -6.720373298e-18 -0.02470733195)
(-0.00764001041 -6.638997504e-18 -0.02263254013)
(-0.007236416259 -6.094726874e-18 -0.02029877026)
(-0.006657780586 -5.344801132e-18 -0.01766822422)
(-0.005868965135 -4.395517647e-18 -0.01471285323)
(-0.00484559849 -4.104524128e-18 -0.0114354425)
(-0.003591151849 -3.036847597e-18 -0.007916691103)
(-0.002149814091 -1.317673934e-18 -0.004390705829)
(-0.0006624076721 -9.216704344e-19 -0.001239395004)
(-0.0001002585601 5.654194371e-18 -0.04813537837)
(-0.0002624746868 3.956462749e-18 -0.04812439502)
(-0.000416293233 -2.045107689e-18 -0.04809834301)
(-0.0005757937284 -2.041141436e-18 -0.04805977905)
(-0.0007365231677 -1.003229653e-17 -0.04800924715)
(-0.0008974989096 -3.891700864e-18 -0.04794709409)
(-0.001059240288 -6.500195198e-18 -0.04787354515)
(-0.00122227645 -3.365920781e-18 -0.04778872423)
(-0.001387024065 -2.238835845e-18 -0.04769264925)
(-0.001553857997 -5.063967754e-18 -0.04758522887)
(-0.001723121747 -7.865902546e-18 -0.04746626418)
(-0.00189512163 -7.204673663e-18 -0.04733545095)
(-0.002070125183 -4.852697499e-18 -0.04719238293)
(-0.002248362135 -4.789750312e-18 -0.04703655653)
(-0.002430026118 -5.21571528e-18 -0.04686737754)
(-0.002615276676 -5.1314022e-18 -0.04668416887)
(-0.002804239225 -3.831012842e-18 -0.04648617976)
(-0.002997005288 -6.037675059e-18 -0.04627259634)
(-0.00319363145 -6.996138103e-18 -0.0460425498)
(-0.003394133924 -8.31918577e-18 -0.04579512313)
(-0.00359848357 -9.790473925e-18 -0.04552935681)
(-0.003806598126 -1.032528436e-17 -0.04524424816)
(-0.004018334741 -9.979536907e-18 -0.0449387473)
(-0.004233482575 -1.074227979e-17 -0.04461174654)
(-0.004451758823 -1.137183514e-17 -0.04426206473)
(-0.004672808224 -1.150243889e-17 -0.0438884249)
(-0.004896206315 -1.174316279e-17 -0.04348942668)
(-0.005121468569 -1.151950663e-17 -0.04306351345)
(-0.005348062759 -1.146295525e-17 -0.04260893355)
(-0.005575423792 -1.021520829e-17 -0.04212369614)
(-0.005802970255 -9.658832026e-18 -0.04160551868)
(-0.006030119308 -1.005528919e-17 -0.04105176219)
(-0.006256297358 -9.399145938e-18 -0.04045934656)
(-0.006480939738 -8.465815111e-18 -0.03982463315)
(-0.006703471932 -7.378864792e-18 -0.03914325876)
(-0.006923259709 -6.089798191e-18 -0.03840989633)
(-0.007139513805 -5.252239173e-18 -0.03761791276)
(-0.007351125999 -4.496077359e-18 -0.03675888001)
(-0.007556409383 -3.698625988e-18 -0.03582187673)
(-0.007752692712 -3.368987505e-18 -0.03479247622)
(-0.007935695534 -3.08923098e-18 -0.03365126293)
(-0.008098561047 -2.810856916e-18 -0.03237164997)
(-0.008230297452 -3.707165553e-18 -0.0309167649)
(-0.008313236737 -4.130586049e-18 -0.02923512425)
(-0.008319142481 -3.912343237e-18 -0.02725441201)
(-0.008203226013 -3.330388094e-18 -0.02487219355)
(-0.007890724447 -3.245409061e-18 -0.02194263013)
(-0.00723394746 -3.192888938e-18 -0.0182464037)
(-0.005882646858 -2.98538912e-18 -0.0133641793)
(-0.002949010417 -2.695096676e-18 -0.006248682275)
(-7.378528159e-05 3.284154723e-18 -0.04876733844)
(-0.0001928372769 1.866074263e-19 -0.04875847844)
(-0.0003056903149 -1.430101351e-18 -0.04873769805)
(-0.0004231321794 -4.200973316e-18 -0.04870711301)
(-0.0005416654774 -5.812297269e-19 -0.04866702404)
(-0.0006606625895 8.000787959e-20 -0.04861766456)
(-0.0007805611454 -4.394110764e-19 -0.04855920413)
(-0.0009017487407 -1.529597875e-18 -0.04849171381)
(-0.001024511343 -3.945276437e-18 -0.04841516365)
(-0.001149088752 -4.514463446e-18 -0.04832942358)
(-0.001275675882 -5.199006119e-18 -0.04823426502)
(-0.001404417207 -4.745679651e-18 -0.04812936325)
(-0.001535405385 -6.247597406e-18 -0.04801430071)
(-0.001668680635 -8.325593642e-18 -0.04788857025)
(-0.001804228779 -8.826607209e-18 -0.04775157745)
(-0.001941976051 -8.846251628e-18 -0.04760264128)
(-0.002081782872 -8.85951121e-18 -0.04744099265)
(-0.002223438274 -9.152507484e-18 -0.04726576762)
(-0.002366651343 -9.185494633e-18 -0.04707599565)
(-0.002511042755 -9.428612377e-18 -0.0468705874)
(-0.002656143653 -9.82505683e-18 -0.04664832241)
(-0.002801397775 -9.817260135e-18 -0.04640783848)
(-0.002946172436 -9.710157068e-18 -0.0461476315)
(-0.003089776818 -9.939508197e-18 -0.04586606208)
(-0.003231484961 -9.97049374e-18 -0.04556137688)
(-0.00337056077 -9.624258048e-18 -0.04523173668)
(-0.00350627821 -9.685400437e-18 -0.04487525256)
(-0.003637932452 -9.45306932e-18 -0.04449001935)
(-0.003764837539 -9.688139406e-18 -0.04407414504)
(-0.003886310932 -9.65454598e-18 -0.04362576663)
(-0.004001647566 -9.642805767e-18 -0.04314305214)
(-0.004110088747 -9.533945765e-18 -0.04262418259)
(-0.004210793192 -9.011171264e-18 -0.04206731384)
(-0.00430281311 -8.457667671e-18 -0.04147050929)
(-0.004385073038 -7.813289102e-18 -0.04083163748)
(-0.004456341307 -7.226448563e-18 -0.04014821983)
(-0.004515178631 -6.771703693e-18 -0.03941722077)
(-0.004559848094 -6.273741618e-18 -0.03863477017)
(-0.004588169046 -5.814855974e-18 -0.03779582078)
(-0.004597289469 -5.482947108e-18 -0.03689374192)
(-0.004583319263 -5.210794329e-18 -0.03591980409)
(-0.004540715328 -5.044128301e-18 -0.03486227017)
(-0.004461239384 -4.858319344e-18 -0.03370424577)
(-0.004332220467 -4.626253494e-18 -0.03241855003)
(-0.004133522592 -4.351416136e-18 -0.03095679003)
(-0.003832155722 -4.138757432e-18 -0.0292280148)
(-0.003376295957 -4.037520796e-18 -0.0270559094)
(-0.002703740843 -4.043567669e-18 -0.02407260866)
(-0.001789852628 -3.018725399e-18 -0.01937409492)
(-0.0007512024539 -1.49637881e-18 -0.01035878888)
(-5.770529804e-05 -1.288186825e-18 -0.0491358186)
(-0.0001509088247 -1.600311158e-18 -0.04912798841)
(-0.0002395671735 -1.971503437e-18 -0.04910958684)
(-0.0003321193345 -3.037072613e-18 -0.04908256116)
(-0.000425794914 2.867819315e-19 -0.04904709206)
(-0.0005201991055 -5.418161602e-19 -0.04900331536)
(-0.0006157360778 -6.050102533e-19 -0.04895130284)
(-0.0007127323685 -2.97779101e-18 -0.04889101585)
(-0.0008114113694 -5.022945644e-18 -0.04882230272)
(-0.0009119389179 -4.904762929e-18 -0.0487449019)
(-0.00101442099 -4.76481626e-18 -0.04865844199)
(-0.001118893754 -5.965445232e-18 -0.04856244255)
(-0.001225317713 -7.241801985e-18 -0.048456314)
(-0.001333571007 -8.759013279e-18 -0.04833935437)
(-0.001443439602 -9.038870818e-18 -0.04821074201)
(-0.001554608048 -1.050584788e-17 -0.04806952531)
(-0.001666655544 -1.049108948e-17 -0.04791460913)
(-0.001779059695 -9.811191339e-18 -0.04774474183)
(-0.001891207138 -9.582923367e-18 -0.04755850916)
(-0.002002419029 -9.557948353e-18 -0.04735434343)
(-0.002111991957 -9.6050253e-18 -0.04713054804)
(-0.002219242767 -9.601412172e-18 -0.04688534199)
(-0.00232355854 -9.562997162e-18 -0.04661691788)
(-0.002424438014 -9.552596746e-18 -0.04632349913)
(-0.002521519194 -9.463868317e-18 -0.04600338215)
(-0.002614587636 -9.197055413e-18 -0.04565494266)
(-0.002703563907 -8.834559304e-18 -0.0452765989)
(-0.002788471442 -8.931755577e-18 -0.04486672842)
(-0.002869389215 -8.843098055e-18 -0.04442355496)
(-0.002946393939 -9.332926984e-18 -0.04394502458)
(-0.003019495712 -9.124232294e-18 -0.04342869884)
(-0.003088571336 -8.991565939e-18 -0.04287168141)
(-0.003153300607 -8.810707752e-18 -0.04227057565)
(-0.003213109283 -8.562843972e-18 -0.04162143581)
(-0.003267118551 -8.23668331e-18 -0.04091964655)
(-0.003314092746 -7.895683985e-18 -0.04015965395)
(-0.003352366986 -7.562304337e-18 -0.03933448128)
(-0.003379729184 -7.228330046e-18 -0.03843497945)
(-0.003393219907 -6.89570612e-18 -0.03744874662)
(-0.003388798121 -6.590449172e-18 -0.0363585616)
(-0.003360804637 -6.22376711e-18 -0.03513994467)
(-0.003301168239 -5.780227227e-18 -0.03375708916)
(-0.003198400182 -4.950366579e-18 -0.03215603439)
(-0.003036688058 -4.398908112e-18 -0.03025400849)
(-0.002795643759 -3.719828908e-18 -0.0279249486)
(-0.00245068315 -2.880379163e-18 -0.02498449588)
(-0.001974350228 -2.59973435e-18 -0.02118830156)
(-0.001355236612 -2.085380267e-18 -0.01628836976)
(-0.0006853127025 -1.352218238e-18 -0.01022897109)
(-0.0001646818552 -4.708314637e-19 -0.003433527451)
(-4.346843764e-05 -7.676332373e-19 -0.04942186199)
(-0.0001136434728 -1.244967786e-19 -0.04941522385)
(-0.0001804773305 -7.919505978e-19 -0.04939957378)
(-0.0002504945027 -1.40769097e-18 -0.04937660986)
(-0.0003216521779 -1.742543794e-18 -0.04934641292)
(-0.0003936874566 -2.575936905e-18 -0.04930902698)
(-0.0004669162486 -3.77947639e-18 -0.04926441997)
(-0.000541567072 -4.730856397e-18 -0.04921243848)
(-0.0006177577664 -5.674641799e-18 -0.04915280331)
(-0.0006955248842 -6.496448177e-18 -0.04908511055)
(-0.0007748186225 -7.280755717e-18 -0.04900882666)
(-0.0008554914677 -7.589853121e-18 -0.04892327967)
(-0.0009372919858 -7.760628864e-18 -0.04882764725)
(-0.001019864042 -7.626393694e-18 -0.04872094385)
(-0.001102754205 -8.659429285e-18 -0.04860201207)
(-0.001185432831 -9.417389223e-18 -0.04846952504)
(-0.001267329865 -9.095886832e-18 -0.04832200699)
(-0.001347880494 -9.063945879e-18 -0.04815787826)
(-0.001426575755 -9.177484899e-18 -0.04797552399)
(-0.001503012866 -9.2843286e-18 -0.04777337211)
(-0.001576928515 -9.487899046e-18 -0.04754996247)
(-0.00164821077 -9.673241058e-18 -0.04730398816)
(-0.001716889106 -9.701795742e-18 -0.04703428871)
(-0.001783102856 -9.723315292e-18 -0.0467397997)
(-0.001847058098 -9.686418542e-18 -0.04641946455)
(-0.001908978148 -9.547702099e-18 -0.04607213454)
(-0.001969055689 -9.38607292e-18 -0.04569647315)
(-0.002027410735 -9.237041115e-18 -0.04529087943)
(-0.002084055275 -9.124699457e-18 -0.04485342633)
(-0.002138865977 -8.746846523e-18 -0.04438180943)
(-0.002191560489 -9.025621908e-18 -0.04387329256)
(-0.002241671683 -8.968137322e-18 -0.04332465187)
(-0.002288512742 -8.867190733e-18 -0.04273211039)
(-0.002331128877 -8.673954737e-18 -0.0420912461)
(-0.002368231681 -8.463584549e-18 -0.04139682361)
(-0.002398115146 -8.240176692e-18 -0.04064248405)
(-0.00241854765 -7.996799497e-18 -0.03982020825)
(-0.002426629909 -7.721395371e-18 -0.03891946328)
(-0.002418601199 -7.392683923e-18 -0.03792591034)
(-0.002389581878 -7.03055432e-18 -0.03681948659)
(-0.002333272592 -6.627152769e-18 -0.03557160741)
(-0.002241719908 -6.082334142e-18 -0.03414128696)
(-0.002105420963 -5.365837921e-18 -0.0324703346)
(-0.001914291466 -4.591627055e-18 -0.03047859719)
(-0.001660359646 -3.716684322e-18 -0.02806132406)
(-0.001343152981 -2.62317957e-18 -0.02509089648)
(-0.0009774634177 -2.294461383e-18 -0.02142163254)
(-0.0005998287088 -1.818386363e-18 -0.01688895158)
(-0.0002691384779 -1.204780187e-18 -0.0112919929)
(-6.477220483e-05 -4.505933472e-19 -0.004358268491)
(-3.12585851e-05 1.663639101e-18 -0.04963316129)
(-8.178058865e-05 7.272850382e-18 -0.0496275846)
(-0.0001300802764 9.185318425e-19 -0.04961439506)
(-0.000180909195 -1.039002341e-18 -0.04959497521)
(-0.0002328483782 -2.047514062e-18 -0.04956930603)
(-0.0002857338173 -3.539155909e-18 -0.04953730655)
(-0.0003397782396 -6.763241169e-18 -0.04949879151)
(-0.0003950879511 -6.556771537e-18 -0.04945343084)
(-0.000451645239 -7.101051967e-18 -0.04940073809)
(-0.0005093267959 -7.495106614e-18 -0.04934006248)
(-0.0005679066397 -1.103231221e-17 -0.04927057844)
(-0.0006270643338 -9.576057848e-18 -0.04919127873)
(-0.0006864069864 -8.797228652e-18 -0.0491009803)
(-0.000745505553 -8.066297629e-18 -0.04899835192)
(-0.0008039438254 -8.544635283e-18 -0.04888196849)
(-0.0008613727917 -8.491324218e-18 -0.04875038669)
(-0.0009175576956 -7.713375766e-18 -0.04860222661)
(-0.000972407785 -7.945316377e-18 -0.0484362356)
(-0.001025986443 -8.918965739e-18 -0.04825130899)
(-0.001078496662 -9.485739521e-18 -0.04804645718)
(-0.001130243192 -9.900268188e-18 -0.04782073427)
(-0.001181585714 -1.013650095e-17 -0.04757315132)
(-0.001232884162 -1.023038386e-17 -0.04730260653)
(-0.001284449376 -1.022868746e-17 -0.04700784824)
(-0.001336503926 -1.017840216e-17 -0.04668746117)
(-0.001389155615 -1.008038205e-17 -0.04633985668)
(-0.001442382871 -9.921986505e-18 -0.04596324112)
(-0.001496028748 -9.703340113e-18 -0.04555555632)
(-0.00154979656 -9.402604985e-18 -0.04511439407)
(-0.00160324435 -9.284199692e-18 -0.04463689714)
(-0.001655776091 -9.16396731e-18 -0.04411965114)
(-0.001706624485 -9.202853447e-18 -0.04355856869)
(-0.001754822189 -9.116071366e-18 -0.042948756)
(-0.001799155799 -8.911001936e-18 -0.04228433171)
(-0.001838099506 -8.619052534e-18 -0.0415581487)
(-0.001869725586 -8.539285189e-18 -0.04076134268)
(-0.001891592866 -8.436048896e-18 -0.03988261973)
(-0.001900615403 -8.35407919e-18 -0.03890718026)
(-0.001892924469 -7.823048307e-18 -0.03781519233)
(-0.001863761001 -7.271999011e-18 -0.03657975459)
(-0.001807483131 -6.6299717e-18 -0.03516441059)
(-0.001717843473 -6.033555061e-18 -0.03352051648)
(-0.00158875481 -5.447013682e-18 -0.03158513777)
(-0.001415750251 -4.689377513e-18 -0.02928050587)
(-0.001198093088 -3.748841177e-18 -0.02651635183)
(-0.0009411128303 -2.519427922e-18 -0.02319672961)
(-0.0006587950719 -2.146304953e-18 -0.01923379195)
(-0.0003791059453 -1.636759948e-18 -0.01457108307)
(-0.0001524106906 -1.019575898e-18 -0.009213355093)
(-2.761614438e-05 -3.492089345e-19 -0.003246211064)
(-2.125216923e-05 -1.201996642e-18 -0.04978288338)
(-5.563379265e-05 -3.738757222e-18 -0.0497782173)
(-8.865890354e-05 -7.162525082e-18 -0.04976721039)
(-0.0001236347572 -3.556444042e-18 -0.04975091523)
(-0.0001596193931 -2.851008739e-18 -0.04972918384)
(-0.0001964797836 -3.837083759e-18 -0.04970176096)
(-0.0002342877179 -5.451060246e-18 -0.04966824213)
(-0.0002729952884 -6.324987345e-18 -0.04962803463)
(-0.0003124390985 -8.120544442e-18 -0.04958035254)
(-0.0003523763601 -6.703698784e-18 -0.04952422572)
(-0.0003925208362 -7.418621724e-18 -0.04945852993)
(-0.0004325883656 -8.821899474e-18 -0.04938204211)
(-0.0004723473076 -9.681583613e-18 -0.0492935167)
(-0.0005116628529 -1.08905554e-17 -0.04919176543)
(-0.0005505263162 -1.044819019e-17 -0.04907571468)
(-0.0005890631513 -1.001041975e-17 -0.04894441813)
(-0.0006275161695 -1.085729058e-17 -0.04879702192)
(-0.0006662119693 -1.045133531e-17 -0.04863269999)
(-0.0007055190788 -1.095157593e-17 -0.0484505882)
(-0.0007457997824 -1.107481282e-17 -0.04824974212)
(-0.0007873710468 -1.116081804e-17 -0.04802911962)
(-0.0008304777718 -1.121022163e-17 -0.0477875715)
(-0.0008752740264 -1.117245427e-17 -0.04752382894)
(-0.000921813392 -1.106851497e-17 -0.0472364766)
(-0.0009700417644 -1.094078102e-17 -0.04692392022)
(-0.001019791052 -1.080563513e-17 -0.04658434573)
(-0.001070774158 -1.066865621e-17 -0.04621567158)
(-0.00112258144 -1.054883548e-17 -0.0458154841)
(-0.001174678062 -1.047058342e-17 -0.04538095921)
(-0.001226398805 -1.052573799e-17 -0.04490876338)
(-0.001276940243 -1.055884814e-17 -0.04439493929)
(-0.001325343516 -1.027065886e-17 -0.04383476472)
(-0.001370466644 -1.016699308e-17 -0.04322257672)
(-0.001410940889 -1.017371405e-17 -0.04255152865)
(-0.001445111603 -9.481815875e-18 -0.04181323797)
(-0.001470962922 -9.361158967e-18 -0.04099726088)
(-0.001486036368 -8.756761574e-18 -0.04009032408)
(-0.00148735965 -8.255183091e-18 -0.03907525934)
(-0.001471423016 -7.94925048e-18 -0.03792963983)
(-0.001434260291 -7.629761214e-18 -0.03662422057)
(-0.001371726544 -8.258779591e-18 -0.03512143887)
(-0.001280067264 -5.910791904e-18 -0.0333744223)
(-0.001156858613 -6.090693067e-18 -0.03132706557)
(-0.001002301801 -5.055590947e-18 -0.02891571827)
(-0.0008206902295 -3.681389348e-18 -0.02607269586)
(-0.0006216216948 -3.260321798e-18 -0.02273119675)
(-0.0004203383242 -2.610177786e-18 -0.01883047644)
(-0.0002370332704 -1.820474908e-18 -0.01431975116)
(-9.566558675e-05 -9.069065667e-19 -0.009159177338)
(-1.9592465e-05 -3.920835434e-19 -0.00331377758)
(-1.336333197e-05 1.668605238e-17 -0.04988294227)
(-3.501122761e-05 2.611193609e-18 -0.04987910364)
(-5.594238738e-05 4.318704314e-18 -0.04987002475)
(-7.827980629e-05 5.263018002e-19 -0.04985639282)
(-0.0001014106581 1.132666839e-18 -0.04983785083)
(-0.0001251862104 -2.367077069e-18 -0.04981387272)
(-0.0001495567457 -2.915748727e-18 -0.04978375206)
(-0.0001743980178 -4.48473724e-18 -0.04974660651)
(-0.000199552648 -4.472917025e-18 -0.04970143495)
(-0.000224887436 -8.294253324e-18 -0.04964719211)
(-0.0002503347547 -6.675544954e-18 -0.04958286354)
(-0.0002759226461 -8.056626826e-18 -0.04950751729)
(-0.0003017867017 -8.841719821e-18 -0.04942031215)
(-0.0003281613009 -1.103209289e-17 -0.04932046486)
(-0.0003553540272 -1.187956477e-17 -0.04920719897)
(-0.0003837083791 -1.233507931e-17 -0.04907970417)
(-0.0004135653562 -1.339326834e-17 -0.04893711978)
(-0.0004452337279 -1.343306178e-17 -0.04877853217)
(-0.0004789668753 -1.275015442e-17 -0.04860296978)
(-0.0005149469913 -1.244737394e-17 -0.04840938574)
(-0.0005532797264 -1.242432587e-17 -0.0481966263)
(-0.0005939886712 -1.266182238e-17 -0.0479633978)
(-0.0006370139508 -1.218665664e-17 -0.04770823454)
(-0.0006822120913 -1.185826941e-17 -0.0474294674)
(-0.0007293559366 -1.161032465e-17 -0.04712519398)
(-0.0007781321738 -1.13958744e-17 -0.04679324297)
(-0.0008281376896 -1.117261153e-17 -0.04643112943)
(-0.0008788737818 -1.094097458e-17 -0.04603599135)
(-0.0009297388079 -1.066988913e-17 -0.0456045055)
(-0.0009800181699 -1.084601272e-17 -0.04513277581)
(-0.001028869862 -1.012689116e-17 -0.04461619343)
(-0.001075304684 -9.972777788e-18 -0.04404926079)
(-0.001118156124 -9.73208471e-18 -0.04342536385)
(-0.001156041363 -9.87159919e-18 -0.04273647108)
(-0.001187312062 -9.519423807e-18 -0.04197271706)
(-0.001210003135 -9.152051507e-18 -0.04112183438)
(-0.001221792 -8.64525056e-18 -0.04016839412)
(-0.001219997051 -8.085826753e-18 -0.03909286796)
(-0.001201650628 -8.076875152e-18 -0.03787059077)
(-0.001163697825 -7.678125163e-18 -0.03647080721)
(-0.001103366143 -7.312888665e-18 -0.03485608465)
(-0.001018728035 -6.872442537e-18 -0.03298242338)
(-0.0009094247399 -6.18123232e-18 -0.03080034331)
(-0.0007774364149 -5.3866332e-18 -0.02825709799)
(-0.0006277107953 -4.565793337e-18 -0.02529995823)
(-0.0004684245406 -3.750267795e-18 -0.02188040997)
(-0.0003108887972 -2.960624322e-18 -0.01795903454)
(-0.0001698708635 -2.155164275e-18 -0.01351063558)
(-6.460435732e-05 -1.313123322e-18 -0.008528506493)
(-1.11332971e-05 -4.419515737e-19 -0.003025023764)
(-7.399092052e-06 -2.375672136e-18 -0.04994492412)
(-1.940832638e-05 -4.425935398e-18 -0.04994176294)
(-3.112716106e-05 -6.817741206e-18 -0.0499341575)
(-4.373534915e-05 -5.301603246e-18 -0.04992237835)
(-5.686821612e-05 -5.349647845e-18 -0.04990580842)
(-7.041996525e-05 -5.59190664e-18 -0.04988369105)
(-8.436797651e-05 -5.770584839e-18 -0.04985519996)
(-9.870571111e-05 -6.075320361e-18 -0.04981949675)
(-0.0001134757851 -6.131375684e-18 -0.04977578182)
(-0.0001287976655 -6.93816177e-18 -0.04972330399)
(-0.0001448674024 -8.396197282e-18 -0.04966133438)
(-0.0001619411098 -9.618013012e-18 -0.04958913393)
(-0.0001803102318 -1.062928454e-17 -0.04950593681)
(-0.000200273599 -1.1224793e-17 -0.04941095335)
(-0.00022211251 -1.170363039e-17 -0.0493033765)
(-0.0002460722372 -1.199963312e-17 -0.04918237562)
(-0.0002723514627 -1.215708435e-17 -0.04904707437)
(-0.0003010953475 -1.214332484e-17 -0.04889652269)
(-0.00033238691 -1.198670311e-17 -0.04872967127)
(-0.0003662454589 -1.186011901e-17 -0.04854534724)
(-0.000402628371 -1.181535314e-17 -0.0483422306)
(-0.0004414303094 -1.180911898e-17 -0.04811883376)
(-0.000482484889 -1.184058867e-17 -0.04787347684)
(-0.0005255637019 -1.189211332e-17 -0.04760426204)
(-0.0005703748448 -1.188272301e-17 -0.04730904026)
(-0.0006165586686 -1.173882789e-17 -0.04698537062)
(-0.0006636808547 -1.14878537e-17 -0.04663046459)
(-0.0007112242189 -1.11256717e-17 -0.04624111459)
(-0.0007585771437 -1.059321326e-17 -0.04581359677)
(-0.0008050206997 -1.030677284e-17 -0.04534354751)
(-0.0008497109097 -9.552350801e-18 -0.04482580296)
(-0.0008916588659 -9.61238201e-18 -0.04425419981)
(-0.0009297036769 -9.477287499e-18 -0.04362131749)
(-0.0009624827841 -9.214986132e-18 -0.04291814804)
(-0.000988401727 -9.138883162e-18 -0.0421336677)