/*--------------------------------*- C++ -*----------------------------------*\
  =========                 |
  \\      /  F ield         | OpenFOAM: The Open Source CFD Toolbox
   \\    /   O peration     | Website:  https://openfoam.org
    \\  /    A nd           | Version:  7
     \\/     M anipulation  |
\*---------------------------------------------------------------------------*/
FoamFile
{
    version     2.0;
    format      ascii;
    class       volVectorField;
    location    "0.0003";
    object      grad(generalizedNewtonian:nu);
}
// * * * * * * * * * * * * * * * * * * * * * * * * * * * * * * * * * * * * * //

dimensions      [0 1 -1 0 0 0 0];

internalField   nonuniform List<vector> 
1166
(
(-687766.9026 0 -119534.1221)
(-834206.6534 0 45911.84933)
(-1525328.093 0 381495.4664)
(-2606632.176 0 919654.1797)
(-3613674.094 0 1561097.678)
(-4924046.711 0 2176432.615)
(-6583134.785 0 2857974.511)
(-7607985.233 0 3770009.988)
(-7229656.498 0 4924874.872)
(-8787669.104 0 6209736.192)
(-15010213.03 0 7420538.964)
(-22517727.81 0 8260319.474)
(-26369233.16 0 8127027.305)
(-21217007.42 0 6472798.558)
(-5815491.247 0 3511887.847)
(9228068.604 0 -1936.844846)
(15207256.29 0 -2816970.45)
(15207477.37 0 -3852381.276)
(13598371.15 0 -3649186.836)
(11805004.61 0 -3202225.853)
(10759178.44 0 -2941452.461)
(11350484.7 0 -2695394.422)
(9899574.606 9.737110326e-08 -429214.3841)
(-14226741.48 0 5201629.624)
(-61735570.17 0 11527471.01)
(-88848919.82 0 16537831.42)
(-85082813.24 0 17553033.76)
(-75723878.43 0 15589804.18)
(-68589884.09 0 13645339.64)
(-62934127.84 0 12124701.51)
(-57954389.8 0 10850726.85)
(-53329096.65 0 9725789.069)
(-48985621 0 8715375.159)
(-44952736.97 0 7810944.129)
(-1586146.738 0 8649219.517)
(-2779624.518 0 8687195.7)
(-4788813.069 0 8821801.223)
(-6721593.243 -3.759817009e-07 8990384.106)
(-7216727.732 0 9247338.634)
(-7778929.186 0 9565862.532)
(-10124844.97 0 9847299.799)
(-13902193.43 -1.960955909e-07 9997219.517)
(-17606984.47 0 9935341.55)
(-19836854.18 -1.636536383e-07 9337190.035)
(-17937156.25 0 7741235.94)
(-8878288.14 -1.428995899e-07 5124725.788)
(3675620.815 0 1903558.251)
(12143952.33 -1.286558715e-07 -1329939.045)
(14923359.27 0 -3556908.738)
(14607235.64 0 -4155999.077)
(13105142.14 0 -3853343.68)
(11458367.46 1.108286605e-07 -3436114.281)
(10483314.14 1.077630226e-07 -3200494.384)
(10918793.72 0 -3031623.308)
(10570267.71 0 -1251654.027)
(-6790024.719 0 3860090.729)
(-49523370.83 0 10149427.5)
(-81389611.04 0 15549964.15)
(-82471689.84 0 17581124.25)
(-73960772.72 0 16001478.87)
(-66975881.77 0 13979018.49)
(-61563381.4 0 12386769.02)
(-56896745.68 0 11078941.65)
(-52579687.12 0 9935913.884)
(-48486744.36 0 8909447.3)
(-44623369.78 0 7985624.38)
(-41052294.36 0 7160972.358)
(-37808071.15 0 6431720.239)
(-34875936.43 0 5789741.757)
(-32223846.06 2.231704416e-08 5224243.792)
(-29821311.52 -2.229980425e-08 4725074.232)
(-27645181.58 -2.229868315e-08 4283557.983)
(-25673574.74 0 3892427.165)
(-23885519.47 0 3545169.714)
(-22262773.32 0 3236340.072)
(-20791213.27 0 2961496.377)
(-19460951.41 -1.125356166e-08 2717052.641)
(-18263127.84 0 2499909.013)
(-17188731.93 0 2307099.932)
(-16226634.62 0 2135852.453)
(-15356189.79 -1.144786074e-08 1983655.169)
(-14544318.9 0 1848250.224)
(-13950177.37 0 1727773.653)
(-13687530.84 0 1620132.17)
(-988984.8018 0 11541622.58)
(-1860191.739 0 11387704.06)
(-3174387.379 0 11168794.29)
(-4964316.756 0 10723951.82)
(-6790634.585 0 10132267.99)
(-8241163.197 0 9310834.824)
(-9002640.325 0 8053506.574)
(-8144136.119 0 6247012.953)
(-3424899.843 0 3917947.754)
(4233117.815 0 1216642.999)
(10502455.9 0 -1572257.187)
(13577338.41 0 -3880889.033)
(14372741.25 -1.372629375e-07 -5008797.211)
(13812607.45 0 -5070729.122)
(12499291.97 0 -4675251.786)
(11101099.08 0 -4236920.261)
(10313973.72 0 -3980410.46)
(10709044.71 0 -3788534.863)
(10738610.82 0 -2189579.977)
(-2337408.83 0 2565081.777)
(-39727292.99 0 8781035.585)
(-73286576.69 0 14414639)
(-78797597.33 0 17275674.73)
(-71677461.69 0 16251754.77)
(-65013258.14 0 14241828.95)
(-59895217.82 0 12604727.21)
(-55572265.52 0 11280934.62)
(-51600114.81 0 10136167.99)
(-47813482.7 -4.669962399e-08 9108261.458)
(-44193844.29 0 8176820.218)
(-40789330.12 0 7338072.574)
(-37649817.64 2.292064607e-08 6591352.337)
(-34788278.67 0 5931982.559)
(-32188050.64 0 5350289.745)
(-29822972.22 0 4836243.38)
(-27671402.13 0 4381071.84)
(-25714412.86 0 3977441.253)
(-23933613.61 0 3618954.26)
(-22312133.65 0 3299929.073)
(-20835865.35 0 3015715.605)
(-19495587.52 0 2762526.443)
(-18283546.83 0 2537244.888)
(-17191496.23 0 2337014.678)
(-16209995.66 0 2159062.544)
(-15329658.45 0 2000797.709)
(-14541849.78 -1.156833907e-08 1859905.801)
(-13828131.32 5.813072718e-09 1734303.072)
(-13157010.04 0 1622178.52)
(-12685865.65 5.878859142e-09 1521894.764)
(-12517663.58 5.915608533e-09 1431432.788)
(-429846.5263 0 2135466.718)
(-786845.8508 0 1924859.153)
(-1212663.317 0 1373164.253)
(-1226743.586 0 598808.7484)
(370894.3554 0 -502930.1342)
(3584010.029 0 -1893931.281)
(6901378.012 0 -3464171.548)
(9485069.647 0 -5108789.765)
(11395608.75 0 -6563031.755)
(12452912.08 0 -7339091.609)
(12566078.93 0 -7363977.502)
(11940573.64 0 -6969128.38)
(10934679.19 0 -6428360.16)
(9992613.173 0 -5927239.404)
(9559913.561 0 -5604630.947)
(10070982.59 0 -5267989.884)
(10104961.44 0 -3506874.415)
(-875141.1371 0 1185870.947)
(-33710815.74 0 7363127.815)
(-66348100.95 0 13138478.39)
(-74649767.34 0 16589870.27)
(-69117423.44 0 16185789.82)
(-62967032.85 0 14307535.31)
(-58193434.33 0 12677425.25)
(-54221495.16 0 11370342.1)
(-50598882 0 10250510.54)
(-47125955.47 0 9245038.478)
(-43760376.82 0 8327116.114)
(-40538203.74 0 7491932.743)
(-37521738.04 0 6740351.301)
(-34746035.64 0 6071183.48)
(-32207664.41 0 5478268.43)
(-29886968.95 0 4952959.303)
(-27764043.26 0 4486838.728)
(-25823892.16 0 4072587.83)
(-24051594.98 0 3704014.644)
(-22432184.72 0 3375496.246)
(-20952319.52 0 3082328.998)
(-19601930.79 0 2820640.056)
(-18374400.71 0 2587304.973)
(-17263383.12 0 2379578.047)
(-16261249.85 0 2194762.144)
(-15358850.97 0 2030287.137)
(-14547378.46 0 1883802.854)
(-13820142.1 0 1753191.164)
(-13169178.09 0 1636566.577)
(-12577303.16 0 1532168.803)
(-12014540.26 0 1438526.46)
(-11635451.06 0 1354469.592)
(-11530797.76 0 1277831.131)
(565161.3195 0 -7930396.27)
(2340022.448 0 -8018201.945)
(3686689.773 -5.362918331e-07 -8505172.706)
(4869555.114 0 -8975542.589)
(6439000.365 -3.149366689e-07 -9508935.647)
(7732679.432 0 -9837590.731)
(8659399.025 0 -9836901.39)
(9154625.88 2.054007675e-07 -9585722.995)
(9154002.14 -1.863413034e-07 -9149272.894)
(8763919.02 -1.714193713e-07 -8592086.774)
(8284656.153 0 -8022163.517)
(7965502.635 0 -7552639.814)
(8024159.5 0 -7225245.296)
(8710449.1 0 -6652322.746)
(8311243.748 0 -4425485.37)
(-2591872.545 0 442137.2126)
(-32272781.93 0 6554561.26)
(-61921924.2 -1.160877295e-07 12319397.36)
(-70767258.83 -1.128766202e-07 16028296.61)
(-66562990.49 -1.100728517e-07 16081252.11)
(-61056730.07 0 14376874.32)
(-56654706.52 0 12773995.18)
(-53007477.92 0 11483636.62)
(-49695762.66 0 10384716.02)
(-46503134.48 0 9398441.607)
(-43376635.84 0 8492187.806)
(-40340093.81 0 7658970.526)
(-37454800.94 2.428793244e-08 6900975.061)
(-34769101.1 0 6220158.398)
(-32294198.8 0 5613870.143)
(-30019313 -2.376127377e-08 5074930.886)
(-27927378.57 -4.728023974e-08 4595426.55)
(-26005550.94 0 4168274.036)
(-24241900.85 0 3787461.994)
(-22623897.62 0 3447658.35)
(-21139713.5 0 3144039.925)
(-19779312.43 0 2872634.257)
(-18536526.61 2.335680579e-08 2630200.644)
(-17406142.31 0 2414045.922)
(-16382160.26 -1.170075375e-08 2221647.776)
(-15456978.95 0 2050477.426)
(-14622083.87 0 1898117.721)
(-13870303.13 0 1762407.865)
(-13194590.84 0 1641336.147)
(-12588392.7 0 1533151.35)
(-12044953.87 0 1436233.473)
(-11548628.2 0 1349275.031)
(-11073024.7 6.028122004e-09 1271081.816)
(-10765546.47 0 1200800.136)
(-10704116.24 0 1136023.305)
(219904.1016 0 -10580878.9)
(2501644.276 0 -10461363.4)
(3599960.019 0 -10483366.98)
(3960772.726 0 -10294837.88)
(4806934.357 3.19841369e-07 -10038084.54)
(5248455.346 0 -9707282.636)
(5509916.607 0 -9320520.194)
(5696924.423 2.085995984e-07 -8912035.727)
(5836574.767 0 -8542585.189)
(6043866.021 0 -8255778.15)
(6556516.651 0 -7930271.538)
(7249007.663 0 -6881481.756)
(5478123.231 2.875527397e-07 -3879948.349)
(-7332386.183 -1.368595949e-07 1248277.311)
(-34811483.96 -1.30990778e-07 7161781.966)
(-59523755.8 0 12664565.2)
(-66731376.84 0 16189297)
(-63432311.72 0 16340457.98)
(-58752617.98 0 14731885.29)
(-54858629.67 0 13125229.36)
(-51579117.64 0 11810862.24)
(-48583002.91 0 10692312.98)
(-45686175.24 5.259653557e-08 9690261.842)
(-42823938.45 0 8766809.369)
(-40007333.14 0 7912628.155)
(-37287528.36 -5.037692207e-08 7129828.599)
(-34719573.89 2.490855617e-08 6421971.508)
(-32330857.42 0 5788912.767)
(-30121127.02 0 5224933.872)
(-28078026.59 2.428040332e-08 4722535.176)
(-26189241.35 0 4274576.897)
(-24446220.1 -2.400828182e-08 3874880.122)
(-22839769.34 0 3518124.57)
(-21360031.58 -1.191628988e-08 3199377.788)
(-19997898.17 0 2914478.423)
(-18746603.62 -1.187004366e-08 2659960.603)
(-17602141.23 0 2433010.368)
(-16560232.81 -1.186027776e-08 2231117.782)
(-15615167.51 0 2051765.17)
(-14759601.89 -1.18829767e-08 1892488.904)
(-13985911.69 0 1750995.158)
(-13287878.61 0 1625234.037)
(-12658349.55 0 1513348.198)
(-12090816.6 0 1413601.513)
(-11580879.88 0 1324479.852)
(-11123747.21 0 1244689.213)
(-10705451.23 0 1173014.373)
(-10299948.34 0 1108405.212)
(-10046118.17 0 1050262.615)
(-10017613.3 0 996151.5348)
(-290520.147 0 -9288328.18)
(1996134.96 0 -9194878.501)
(2733502.277 0 -9143396.427)
(2610520.342 0 -8989073.867)
(3413300.965 0 -8817631.338)
(3979941.957 0 -8649170.251)
(4432574.132 0 -8481725.711)
(4954537.058 2.118482477e-07 -8182843.637)
(5550415.293 0 -7338090.198)
(5316796.149 0 -5181629.59)
(336070.9577 0 -1231269.975)
(-15762957.84 0 3988162.783)
(-40117043.64 0 9484584.481)
(-57674224.2 0 14382653.48)
(-61794037.66 0 17207926.34)
(-59130388.63 0 17047911.07)
(-55469934.65 0 15422612.48)
(-52270809.33 0 13784026.16)
(-49486127.44 0 12410339.35)
(-46901259.97 0 11231586.05)
(-44369896.46 0 10174287.5)
(-41831804.68 0 9200879.413)
(-39292063.3 0 8299354.552)
(-36794185.21 0 7470486.754)
(-34398359.41 5.181459802e-08 6717715.983)
(-32146155.25 0 6041837.449)
(-30047366.74 2.529647238e-08 5438919.123)
(-28093029.61 0 4901780.535)
(-26271684.46 0 4422929.795)
(-24578233.93 0 3995746.842)
(-23007164.72 0 3614585.761)
(-21551498.75 0 3274426.489)
(-20204406.51 2.42816378e-08 2970684.321)
(-18959930.32 0 2699569.456)
(-17814781.54 0 2457955.119)
(-16766158.55 0 2243196.186)
(-15810215.56 0 2052785.568)
(-14941298.93 0 1884132.892)
(-14152460.81 0 1734800.274)
(-13437633.01 0 1602615.218)
(-12791113.45 1.209089353e-08 1485560.11)
(-12206754.73 0 1381880.963)
(-11678702.88 6.078788685e-09 1289871.021)
(-11201739.55 0 1208156.338)
(-10772402.99 0 1135430.14)
(-10385740.35 0 1070473.794)
(-10027515.38 6.183742397e-09 1012107.099)
(-9677109.012 0 959525.0006)
(-9464631.882 0 912219.6115)
(-9456513.027 0 867686.6755)
(-442647.9962 0 -8376934.767)
(1832501.42 0 -8314872.385)
(2530282.989 -5.617400811e-07 -8127390.143)
(2338774.112 0 -7792153.64)
(3094438.175 0 -7132394.044)
(3525947.204 0 -5848206.159)
(3045564.198 0 -3589992.328)
(-478111.802 0 -184285.6726)
(-10577406.35 0 4156490.836)
(-27727634.43 -1.795536042e-07 8921512.492)
(-44834801.2 0 13595616.43)
(-53912527.86 0 17328713.48)
(-55148091.17 0 18865103.28)
(-53178155 0 18065770.25)
(-50680892.63 0 16343704.43)
(-48361907.05 0 14665524.18)
(-46241732.54 -1.254616747e-07 13220933.88)
(-44201696.4 0 11961386.16)
(-42149887.82 0 10827002.32)
(-40035759.37 0 9783678.933)
(-37861333 5.636272865e-08 8817933.644)
(-35677846.16 0 7928650.467)
(-33551146.43 0 7118747.509)
(-31522843.4 0 6389688.932)
(-29606787.13 0 5738784.563)
(-27802203.85 0 5158710.74)
(-26103633.11 0 4641640.456)
(-24507505.89 0 4180232.903)
(-23012628.51 2.522553796e-08 3768478.798)
(-21616149.74 2.504255981e-08 3401140.974)
(-20314096.22 -2.48887994e-08 3073362.578)
(-19102553.23 0 2781027.358)
(-17978968.32 -1.232989551e-08 2520655.465)
(-16942655.13 0 2289345.879)
(-15991776.94 0 2084466.716)
(-15122769.54 0 1903398.456)
(-14329997.9 0 1743557.946)
(-13607682.2 0 1602510.404)
(-12951830.22 0 1478117.197)
(-12357054.78 0 1368425.262)
(-11817932.87 0 1271663.909)
(-11329534.06 -6.154802786e-09 1186141.315)
(-10886947.41 6.173457482e-09 1110513.92)
(-10486256.43 0 1043559.319)
(-10123369.83 0 984093.9391)
(-9793538.972 0 930995.2066)
(-9486076.805 0 883377.7741)
(-9181410.798 0 840672.5002)
(-8998009.16 0 802426.4592)
(-8997481.616 -6.390818377e-09 765798.0557)
(-721005.0573 0 -684554.6481)
(693709.0244 0 -182864.603)
(160803.4188 0 1161114.749)
(-2340456.451 0 3074481.853)
(-6365341.873 3.350185581e-07 5645135.227)
(-14038618.8 0 8748956.629)
(-24732810.19 0 12215712.89)
(-35514374.34 0 15744021.1)
(-42868374.35 0 18788082.04)
(-45935585.11 0 20499918.46)
(-46227029.08 -1.696231201e-07 20362186.63)
(-45332429.11 0 18912137.6)
(-44101535.68 0 17117764.37)
(-42828403.98 0 15442660.01)
(-41556202.35 0 13964686.33)
(-40220120.06 6.597342451e-08 12653084.43)
(-38785825.33 0 11462577.82)
(-37218748.25 0 10365773.94)
(-35533313.78 6.003709043e-08 9349726.306)
(-33785170.64 5.854581523e-08 8411864.985)
(-32030616.54 0 7554586.182)
(-30315777.27 0 6781106.249)
(-28665215.18 0 6088674.575)
(-27085599.54 0 5470225.445)
(-25574430.14 0 4917681.615)
(-24133061.46 0 4423656.481)
(-22765913.92 0 3981896.449)
(-21472537.28 0 3587019.105)
(-20252874.58 0 3234219.561)
(-19106726.27 0 2919093.433)
(-18033836.48 2.527640781e-08 2637987.419)
(-17035044.48 0 2387797.943)
(-16110734.09 1.252191647e-08 2165953.13)
(-15259690.76 0 1969857.002)
(-14478898.19 0 1796843.131)
(-13763893.19 0 1644378.188)
(-13110324.21 0 1510149.159)
(-12514458.19 1.242307449e-08 1392101.325)
(-11971842.12 0 1288347.385)
(-11478067.75 0 1197081.864)
(-11028237.58 -6.235211976e-09 1116776.731)
(-10618820.38 0 1046018.1)
(-10247175.88 0 983549.1679)
(-9908479.572 0 928125.3046)
(-9599100.046 0 878795.7141)
(-9316071.683 6.34613737e-09 834726.1562)
(-9050113.916 0 795192.3321)
(-8784566.855 6.412504295e-09 759684.5831)
(-8623133.256 -6.450026658e-09 728024.7)
(-8620598.74 0 697230.1844)
(-3854870.131 0 16559200.13)
(-7575992.942 0 16984541.34)
(-13052270.21 0 18173021.86)
(-19302964.94 0 19546387.99)
(-24647649 0 21040698)
(-29167771.32 0 22241177.11)
(-32432860.65 0 22698388.84)
(-34424687.68 0 22165403.18)
(-35479613.28 0 20817839.58)
(-35938152.33 0 19124391.29)
(-36020313.93 0 17415825.04)
(-35879831.7 0 15842815.76)
(-35570132.08 0 14419602.46)
(-35063075.46 0 13130907.36)
(-34352272.23 0 11943945.6)
(-33436998.63 6.700086883e-08 10841853.68)
(-32339248.65 0 9815230.251)
(-31116477.03 0 8860980.737)
(-29820338.6 0 7984523.503)
(-28494472.33 0 7188504.479)
(-27179622.7 0 6471172.181)
(-25894925.87 0 5827085.43)
(-24637700.54 0 5248768.934)
(-23410217.62 0 4728737.514)
(-22219224.81 2.713665826e-08 4261404.945)
(-21071891.5 0 3841922.647)
(-19972810.27 0 3465476.078)
(-18925156.81 0 3127898.821)
(-17931564.82 2.601736141e-08 2825663.083)
(-16994856.93 0 2555745.627)
(-16118381.39 0 2315509.692)
(-15304487.19 -1.276958316e-08 2102439.627)
(-14552667.76 0 1913991.009)
(-13859534.68 0 1747621.351)
(-13221764.49 0 1600904.2)
(-12636755.61 0 1471645.758)
(-12101106.65 0 1357921.457)
(-11611030.07 0 1257991.634)
(-11163095.49 0 1170142.709)
(-10753663.09 0 1092926.435)
(-10379492.73 6.33231673e-09 1024968.211)
(-10036939.57 0 965096.3378)
(-9721508.035 -6.367240797e-09 912086.2667)
(-9431151.137 0 864908.4757)
(-9164849.138 0 822677.8023)
(-8919333.588 0 784703.116)
(-8686587.162 0 750408.4518)
(-8452346.102 0 719392.96)
(-8306916.944 0 691487.9649)
(-8297695.233 0 663938.5988)
(-3614075.164 -2.792175223e-06 24505730.68)
(-7541891.73 0 24303656.81)
(-11918520.04 -5.88395903e-07 24051682.67)
(-16044123.96 0 23391007.16)
(-19343482.09 0 22435758.72)
(-22056831.58 0 21223790.65)
(-24197262.47 0 19842807.13)
(-25842651 2.253567229e-07 18407703.51)
(-27109666.3 2.044455141e-07 17006677.28)
(-28039030.59 0 15675685.34)
(-28664063.87 0 14429072.09)
(-28998629.4 0 13262669.02)
(-29040203.11 0 12162483.91)
(-28817734.09 -1.478537353e-07 11120757.44)
(-28356741.09 0 10137581.81)
(-27713288.18 0 9211952.674)
(-26927782.86 0 8352683.281)
(-26053745.94 0 7563767.737)
(-25141443.72 0 6845267.736)
(-24204780.33 0 6193550.479)
(-23249457.83 0 5604354.351)
(-22282498.56 0 5070609.109)
(-21310960.06 0 4586962.965)
(-20349781.52 0 4149266.709)
(-19410441.62 -2.755927447e-08 3753700.526)
(-18496385.84 0 3396755.839)
(-17613856.07 0 3074983.705)
(-16768844.05 -2.664765536e-08 2785810.64)
(-15967224.44 0 2526948.115)
(-15213363.74 0 2296200.922)
(-14509021.29 0 2091261.668)
(-13853986.62 -1.29684519e-08 1909682.722)
(-13246608.37 1.29149766e-08 1748969.912)
(-12684720.6 0 1606914.406)
(-12166300.08 0 1481557.204)
(-11689339.6 0 1371034.769)
(-11251748.77 -1.281367619e-08 1273638.108)
(-10850120.31 0 1187751.357)
(-10481198.32 6.410570904e-09 1112035.588)
(-10142282.45 -6.418777188e-09 1045243.95)
(-9829838.667 6.430933872e-09 986146.6077)
(-9540564.022 0 933642.0091)
(-9272074.852 6.466401833e-09 886811.7101)
(-9021833.548 0 844895.4556)
(-8788706.463 0 807093.8063)
(-8572083.709 0 772632.1232)
(-8365094.692 6.578047905e-09 741077.8649)
(-8154950.739 -6.613791357e-09 712097.9641)
(-8019026.644 0 685545.091)
(-8000893.477 3.347038494e-09 658866.6037)
(-2520277.307 0 19597332.35)
(-5471200.506 0 19341455.97)
(-8659922.432 0 18912635.61)
(-11689812.59 0 18244325.15)
(-14327351.32 0 17446034.06)
(-16644330.44 0 16559633.26)
(-18616391.51 0 15627215.5)
(-20271203.12 0 14681017.28)
(-21598260.69 0 13738948.89)
(-22599980.19 1.910028109e-07 12805019.91)
(-23300559.08 0 11889983.03)
(-23706683.5 0 10992560.44)
(-23849904.85 0 10124940.48)
(-23775029.16 0 9291005.333)
(-23510822.93 0 8502453.324)
(-23109606.3 0 7766384.127)
(-22623652.09 0 7084533.592)
(-22063320.11 0 6458939.256)
(-21436155.76 0 5885840.438)
(-20758671.09 0 5360475.152)
(-20047154.92 0 4879023.601)
(-19310962.14 0 4438129.886)
(-18562819.54 2.885330708e-08 4035800.784)
(-17812436.42 0 3669898.125)
(-17068599.56 -2.798847165e-08 3337418.644)
(-16338720.44 0 3036208.776)
(-15631942.94 0 2764418.371)
(-14957849.76 0 2520273.461)
(-14320368.47 1.341702016e-08 2301855.875)
(-13720772.26 0 2106945.895)
(-13158991.34 0 1933443.443)
(-12634260.67 0 1779251.691)
(-12146194.62 0 1642456.923)
(-11693966.08 0 1521251.944)
(-11275497.52 0 1413990.365)
(-10888805.51 0 1319125.014)
(-10531179.96 -1.301323129e-08 1235180.035)
(-10200705.4 0 1160798.197)
(-9895949.519 0 1094757.426)
(-9613155.863 0 1035797.958)
(-9349335.764 0 983074.218)
(-9102706.157 0 935697.2108)
(-8871111.746 0 892909.9616)
(-8652835.754 0 854019.8047)
(-8445968.9 0 818464.4147)
(-8250227.29 0 785587.1911)
(-8061490.121 0 754840.8995)
(-7868125.783 0 726005.6107)
(-7736020.843 0 698983.8876)
(-7707135.41 0 671631.9189)
(-1937890.308 0 14795784.49)
(-4302624.725 0 14652727.77)
(-6840916.188 0 14392922.36)
(-9280430.123 0 14001868.89)
(-11470216.51 1.781904849e-07 13521553.09)
(-13421960.86 0 12968965.49)
(-15125110.07 0 12362394.43)
(-16560174.66 1.162153092e-07 11717895.23)
(-17717179.37 0 11044122.39)
(-18611473.67 0 10356403.04)
(-19249374.27 -9.021955736e-08 9664771.99)
(-19660226.85 0 8981324.164)
(-19868806.4 0 8317217.158)
(-19909668.45 0 7683030.855)
(-19829190.99 0 7081891.742)
(-19633333.33 0 6520641.921)
(-19337824.89 0 5997119.688)
(-18964168.16 0 5508937.499)
(-18522124.52 0 5054259.311)
(-18023307.57 0 4633221.113)
(-17479866.09 0 4243991.42)
(-16908562.05 0 3885353.889)
(-16322775.83 0 3555871.52)
(-15729625.46 0 3253804.206)
(-15139247.56 0 2978446.598)
(-14561435.58 0 2728749.674)
(-14003967.39 0 2503669.786)
(-13471367.45 0 2301476.864)
(-12965164.26 1.362597186e-08 2120205.49)
(-12487086.31 0 1957959.238)
(-12038329.69 0 1812934.454)
(-11618673.78 0 1683494.965)
(-11227302.5 0 1568146.936)
(-10862839.28 0 1465479.236)
(-10524060.11 0 1374049.124)
(-10209133.7 0 1292622.588)
(-9916364.915 -6.607947261e-09 1219985.636)
(-9643387.196 0 1155078.399)
(-9386724.488 0 1096755.096)
(-9145987.276 0 1044050.865)
(-8920014.225 0 996140.7553)
(-8705596.222 0 952434.3523)
(-8501431.339 0 912266.7584)
(-8306184.001 0 875089.1524)
(-8118429.999 0 840386.3995)
(-7937139.356 0 807764.37)
(-7759304.476 0 776616.2509)
(-7576360.474 0 746852.8971)
(-7444893.483 0 718417.8115)
(-7404112.006 0 689559.983)
(-1597820.771 1.462335076e-06 11545940.78)
(-3582445.997 -4.997319346e-07 11454788.81)
(-5701579.018 0 11277727.46)
(-7729602.561 0 11014369.84)
(-9570220.279 0 10681359.6)
(-11220690.39 1.522380817e-07 10289853.91)
(-12662231.45 0 9852093.879)
(-13884146.15 0 9377993.385)
(-14882733.27 1.070734544e-07 8877993.84)
(-15671162.91 9.849917275e-08 8366760.445)
(-16265664.35 0 7850749.588)
(-16684768 0 7344462.046)
(-16958883.82 0 6850997.055)
(-17095082.47 0 6378619.942)
(-17108328.72 -7.411429824e-08 5928238.56)
(-17022162.86 0 5498521.568)
(-16839252.77 6.882552552e-08 5092073.707)
(-16571084.12 6.670509429e-08 4708837.576)
(-16239314.06 0 4348821.116)
(-15859653.18 0 4011539.464)
(-15440242.91 0 3697621.931)
(-14992219.95 0 3407106.796)
(-14524426.38 -2.97590058e-08 3139104.237)
(-14050667.21 0 2893305.327)
(-13583575.43 1.44335117e-08 2669119.711)
(-13128067.99 0 2465651.103)
(-12688068.45 0 2281808.792)
(-12265982.77 -1.395607296e-08 2116043.864)
(-11863428.03 0 1966839.993)
(-11481611.41 -1.373779956e-08 1832873.608)
(-11121179.53 0 1712708.945)
(-10782526.86 0 1604988.146)
(-10465887.67 0 1508394.179)
(-10169776.06 0 1421688.2)
(-9892512.005 0 1343899.07)
(-9632925.358 6.716044967e-09 1273930.901)
(-9388823.078 6.710856824e-09 1210760.683)
(-9157916.475 0 1153450.034)
(-8938677.755 0 1101237.892)
(-8729292.566 -6.723362454e-09 1053481.929)
(-8529360.619 0 1009273.198)
(-8337863.881 0 968173.1047)
(-8152505.101 0 929707.9865)
(-7972405.429 0 893409.5107)
(-7796649.092 0 858890.6456)
(-7623558.377 0 825796.7028)
(-7451649.768 0 793808.0595)
(-7274486.959 -3.46381524e-09 762789.8517)
(-7140368.303 0 732661.7078)
(-7087356.971 3.505862921e-09 702086.9866)
(-1359526.813 0 9258710.127)
(-3058399.36 0 9192151.898)
(-4872358.352 0 9057188.4)
(-6608977.934 0 8859828.052)
(-8182911.963 0 8608956.737)
(-9600115.428 0 8314311.635)
(-10850229.43 0 7985118.946)
(-11912361.37 0 7627929.076)
(-12805655.2 0 7254822.203)
(-13529886.19 0 6872980.023)
(-14099918.39 0 6490005.564)
(-14529975.18 0 6110558.602)
(-14820864.37 0 5739751.545)
(-14996421.1 0 5376423.863)
(-15054765.43 0 5026222.954)
(-15012492.29 0 4689301.756)
(-14891821.97 0 4366079.593)
(-14700785.06 0 4059251.667)
(-14446998.33 -3.293503255e-08 3770064.665)
(-14146133.19 3.211695165e-08 3498370.168)
(-13813489.82 0 3243976.627)
(-13456877.7 0 3007665.801)
(-13087622.95 0 2789798.776)
(-12714588.98 0 2590607.733)
(-12344090.12 0 2409047.057)
(-11982284.08 0 2244012.236)
(-11631991.41 0 2094080.479)
(-11294107.45 0 1958315.052)
(-10970820.72 0 1835647.152)
(-10663500.46 0 1724950.966)
(-10372219.87 0 1625148.795)
(-10096700.58 0 1535200.312)
(-9836115.3 0 1454017.508)
(-9590849.384 0 1380531.147)
(-9359938.567 0 1313801.927)
(-9140403.125 0 1252986.92)
(-8930995.847 0 1197290.866)
(-8730744.97 0 1146028.913)
(-8537998.633 0 1098590.556)
(-8350446.744 0 1054410.585)
(-8168142.851 6.841001384e-09 1012931.938)
(-7991126.407 0 973648.9066)
(-7817411.864 0 936237.8692)
(-7646047.576 0 900347.9495)
(-7476275.857 0 865696.478)
(-7307343.23 0 832052.7758)
(-7138098.299 0 799238.2453)
(-6962147.098 0 767046.3584)
(-6823454.75 0 735475.512)
(-6759568.763 0 703604.7036)
(-1182077.141 0 7623988.741)
(-2658941.371 0 7573305.017)
(-4240778.561 0 7467288.273)
(-5752437.342 0 7314178.108)
(-7133457.36 0 7121106.774)
(-8389918.989 0 6896143.285)
(-9493793.547 0 6643640.27)
(-10453928.7 0 6371229.891)
(-11272225.99 0 6087808.547)
(-11946477.2 0 5793662.039)
(-12483828.81 0 5498366.491)
(-12894360.49 0 5200080.2)
(-13179963.7 8.390186498e-08 4905265.65)
(-13354198.17 0 4615248.243)
(-13438078.12 0 4331421.19)
(-13429607.51 0 4058238.271)
(-13346328.47 0 3796117.453)
(-13204856.37 0 3545526.076)
(-13011825.5 0 3308085.392)
(-12775312.67 0 3085388.265)
(-12509299.43 0 2877552.761)
(-12228411.14 0 2684704.499)
(-11938781.84 0 2507181.751)
(-11645597.56 0 2344528.963)
(-11352954.96 -1.488657637e-08 2195984.773)
(-11062750.92 0 2060645.556)
(-10779392.66 0 1937384.655)
(-10506894.61 0 1825230.127)
(-10245017.18 -1.427255463e-08 1723423.493)
(-9994249.551 0 1631066.438)
(-9755136.524 0 1547206.378)
(-9527280.162 0 1471008.122)
(-9309963.403 0 1401641.24)
(-9102096.352 0 1338324.168)
(-8903010.946 0 1279945.78)
(-8711965.215 0 1226016.561)
(-8527421.461 6.921509104e-09 1175953.608)
(-8348027.403 6.921161134e-09 1129191.366)
(-8172720.597 0 1085211.218)
(-7999639.962 0 1043597.169)
(-7828430.367 0 1003957.049)
(-7659686.047 0 965885.7356)
(-7492100.418 0 929113.9455)
(-7324870.936 0 893432.9604)
(-7157899.124 0 858685.0408)
(-6990258.53 -3.535569181e-09 824635.1801)
(-6820491.709 0 791178.5468)
(-6643736.191 0 758204.7504)
(-6500819.629 0 725780.5801)
(-6427436.199 3.615911167e-09 693146.5883)
(-1047813.941 0 6458779.992)
(-2349624.31 0 6419326.793)
(-3751735.18 3.227810984e-07 6335901.011)
(-5105890.591 0 6216325.697)
(-6344759.618 -1.895527726e-07 6066134.373)
(-7466601.615 0 5888389.442)
(-8464823.978 0 5687941.301)
(-9342196.096 0 5473045.563)
(-10085445.47 0 5243860.347)
(-10703884.45 0 5006651.412)
(-11200349.56 0 4763357.543)
(-11579536.34 0 4518711.41)
(-11856998.69 4.260425978e-08 4273517.339)
(-12033616.16 0 4033554.577)
(-12125457.86 0 3798306.066)
(-12144324.07 -7.465524063e-08 3570048.583)
(-12092961.75 0 3351614.906)
(-11986703.88 3.493519996e-08 3143055.78)
(-11840071.94 0 2945440.397)
(-11660967.69 0 2760114.838)
(-11457020.37 0 2588238.911)
(-11237724.73 0 2429375.464)
(-11011001.61 0 2282697.56)
(-10779072.92 0 2147866.809)
(-10545178.08 0 2024206.932)
(-10312643.34 0 1911058.153)
(-10083349 0 1807951.572)
(-9860079.464 0 1713806.91)
(-9644939.83 0 1627728.01)
(-9437462.485 0 1549104.686)
(-9237603.147 0 1477202.911)
(-9045354.682 0 1411255.179)
(-8859725.762 0 1350536.445)
(-8678380.646 0 1294353.041)
(-8501986.664 0 1242079.879)
(-8330984.827 0 1193118.809)
(-8163139.444 0 1147048.858)
(-7997543.198 0 1103418.323)
(-7833344.83 0 1061848.256)
(-7668898.65 0 1021990.54)
(-7503998.656 0 983540.8538)
(-7339424.584 0 946252.9486)
(-7174618.885 0 909949.445)
(-7009415.523 0 874507.8886)
(-6842642.17 0 839772.2973)
(-6673874.066 0 805464.9702)
(-6502952.604 0 771739.82)
(-6325083.672 0 738496.4621)
(-6177640.214 0 705785.7032)
(-6097972.212 0 672977.3069)
(-943181.4635 0 5622695.06)
(-2111196.682 5.315972733e-07 5591067.14)
(-3376724.62 0 5523163.928)
(-4599481.07 0 5425723.298)
(-5713067.978 0 5300960.927)
(-6725971.977 0 5151995.435)
(-7636015.908 0 4985663.992)
(-8431281.267 0 4804560.078)
(-9109934.176 0 4610298.848)
(-9677536.659 0 4409965.194)
(-10137435.22 0 4202885.559)
(-10494618.6 0 3995572.185)
(-10759415.96 -8.653552537e-08 3787867.426)
(-10938488.55 0 3583088.212)
(-11037789.8 0 3383661.091)
(-11073250.67 -3.79089468e-08 3189675.883)
(-11051402.05 0 3003618.158)
(-10980765.67 0 2827515.217)
(-10875599.44 0 2661320.313)
(-10745288.78 0 2505908.016)
(-10594211.65 -1.644546326e-08 2361411.126)
(-10425823.62 0 2227868.475)
(-10246718.48 0 2104361.786)
(-10062597.77 0 1990262.225)
(-9875392.014 -1.53538626e-08 1885346.614)
(-9688019.554 0 1789026.919)
(-9501776.458 0 1700679.174)
(-9317522.815 1.484598006e-08 1619779.16)
(-9137592.454 1.472056686e-08 1545335.326)
(-8963053.642 0 1476800.308)
(-8792948.524 0 1413561.09)
(-8626464.283 0 1354932.501)
(-8462899.71 0 1300300.988)
(-8301382.9 0 1249195.545)
(-8141496.173 0 1201171.972)
(-7983629.893 0 1155651.448)
(-7826958.804 0 1112315.805)
(-7670144.252 0 1070828.281)
(-7512623.224 0 1030884.383)
(-7352853.4 0 992229.9645)
(-7191059.638 -7.165622243e-09 954560.4327)
(-7028683.209 0 917888.5861)
(-6865315.218 0 882033.0351)
(-6700208.912 0 846862.1893)
(-6531714.386 0 812175.574)
(-6361614.907 0 777988.363)
(-6189984.684 0 744363.5291)
(-6011066.912 0 711281.9717)
(-5860367.813 0 678777.401)
(-5776012.845 0 646379.0612)
(-859259.1394 0 4993968.458)
(-1912376.155 5.398761628e-07 4967204.212)
(-3058970.37 0 4907904.033)
(-4170188.489 0 4823048.449)
(-5177194.759 0 4714159.506)
(-6101363.199 0 4586032.102)
(-6934238.709 0 4442513.568)
(-7658722.968 0 4284498.402)
(-8284431.507 0 4117335.862)
(-8809442.535 0 3943190.782)
(-9238507.506 -4.949247252e-08 3764894.671)
(-9577724.647 0 3584769.94)
(-9830497.547 0 3405630.686)
(-10010739.52 0 3228107.764)
(-10119465.28 -8.006801281e-08 3055645.032)
(-10170313.73 0 2889010.253)
(-10176632.81 0 2729651.392)
(-10141293.51 0 2579125.244)
(-10073637 0 2437894.405)
(-9982717.064 0 2305447.607)
(-9871897.964 0 2181901.544)
(-9744585.719 0 2067055.507)
(-9604753.439 0 1960888.632)
(-9458453.478 -1.581793875e-08 1862502.677)
(-9308881.496 0 1771666.889)
(-9156737.94 0 1687887.026)
(-9003995.17 0 1610589.189)
(-8850659.239 0 1539285.792)
(-8698339.395 0 1473396.305)
(-8548580.509 0 1412152.21)
(-8400023.696 0 1355038.574)
(-8252235.237 1.467504389e-08 1301563.423)
(-8105308.372 0 1251294.841)
(-7957761.361 0 1203802.628)
(-7809110.833 0 1158641.156)
(-7660408.168 0 1115496.127)
(-7510911.893 7.249950184e-09 1074043.783)
(-7359570.408 -7.249585702e-09 1034020.073)
(-7205939.626 0 995212.4613)
(-7048135.72 0 957337.816)
(-6887963.757 0 920385.5116)
(-6727063.269 0 884270.6489)
(-6563609.36 0 848824.6225)
(-6397107.269 0 813955.4007)
(-6227559.56 7.373207818e-09 779496.754)
(-6056847.323 3.703339842e-09 745705.2413)
(-5884528.989 -3.721845231e-09 712495.1596)
(-5705567.468 0 679940.105)
(-5552936.025 0 647925.4613)
(-5465351.234 3.787494235e-09 616302.6696)
(-786119.0494 0 4492040.681)
(-1738080.112 -5.482839854e-07 4468437.551)
(-2782166.804 0 4415756.485)