/*--------------------------------*- C++ -*----------------------------------*\
  =========                 |
  \\      /  F ield         | OpenFOAM: The Open Source CFD Toolbox
   \\    /   O peration     | Website:  https://openfoam.org
    \\  /    A nd           | Version:  7
     \\/     M anipulation  |
\*---------------------------------------------------------------------------*/
FoamFile
{
    version     2.0;
    format      ascii;
    class       volTensorField;
    location    "0.0003";
    object      grad(U);
}
// * * * * * * * * * * * * * * * * * * * * * * * * * * * * * * * * * * * * * //

dimensions      [0 0 -1 0 0 0 0];

internalField   nonuniform List<tensor> 
1166
(
(-0.001544403591 2.789336393e-16 0.0001115760549 -3.102760638e-15 -0.002498776585 0 8.743681677e-06 -8.631246321e-17 0.01734013761)
(-0.002077731059 1.925136323e-17 0.0002556235153 -1.296777404e-15 -0.002200211573 0 2.339443074e-05 -2.428506048e-16 0.01735301909)
(-0.002088846919 -2.678930266e-15 0.0004104851713 -6.969462841e-16 -0.002123082084 0 4.177110357e-05 -3.968444595e-16 0.01738293262)
(-0.002191762975 -2.439245224e-15 0.0005667362742 7.757788792e-16 -0.002127318948 0 7.278257105e-05 -5.609055985e-16 0.01743247441)
(-0.002276778496 -8.672015232e-16 0.0007231586059 7.496300648e-16 -0.002148621343 0 0.0001201522907 -4.086792327e-16 0.01750644971)
(-0.002377431133 -1.214398122e-15 0.0008471360656 8.009721389e-16 -0.002177114787 0 0.000148387905 -5.330657259e-16 0.01761112821)
(-0.002545659892 -1.523927281e-15 0.0008790231902 8.892034116e-16 -0.002213732872 0 9.304760848e-05 -6.504512788e-16 0.01775344972)
(-0.00278767992 1.525637711e-17 0.0007824464219 9.778130389e-16 -0.002267803468 0 -7.867552842e-05 -5.956031631e-16 0.01794198637)
(-0.002689112432 1.243956539e-15 0.0005453484414 6.984482123e-16 -0.002338305005 0 -0.0003705426574 -3.95456205e-16 0.01818918232)
(-0.00166799971 1.412890033e-15 0.000157547523 5.487193478e-16 -0.002351569106 0 -0.0007884927375 -2.213638617e-16 0.01850812318)
(0.0001460228269 1.632510072e-15 -0.0004057147894 3.359190637e-16 -0.002225714756 0 -0.001351988873 -1.659474013e-16 0.01888505234)
(0.002203134755 1.90106104e-15 -0.001171626967 1.965671617e-16 -0.001960762478 0 -0.002067883408 -1.037056784e-16 0.01928158385)
(0.004314601058 2.223850294e-15 -0.002006902258 7.746590835e-18 -0.001590032483 0 -0.002783934238 7.2923651e-17 0.01965097797)
(0.006338761363 2.558342978e-15 -0.002643180637 -1.253566204e-16 -0.001132918622 0 -0.003291022615 1.572856044e-16 0.01994561789)
(0.007427549034 2.886572481e-15 -0.002877342382 -2.981882585e-16 -0.000623931344 0 -0.003529520546 1.823702021e-16 0.02012397664)
(0.007068160455 2.189455085e-15 -0.002640466963 -4.386200233e-16 -0.0001636428671 0 -0.003514801317 2.253868614e-16 0.02016508807)
(0.006062608166 1.59643073e-15 -0.002023819096 -5.005674249e-16 0.0001880926282 0 -0.003268677283 2.776909714e-16 0.02009842306)
(0.005111901412 1.089766127e-15 -0.001268650288 -5.526371542e-16 0.0004501702007 0 -0.002910389351 3.390738708e-16 0.01996863915)
(0.004241826502 1.969947855e-16 -0.0005665437921 -5.543358471e-16 0.0006427902599 0 -0.002568066132 3.418025581e-16 0.01981970685)
(0.003416011221 -1.713297936e-16 4.907259057e-05 -5.22497493e-16 0.0007791883115 0 -0.002264585077 3.493487425e-16 0.01968118944)
(0.002637400529 -9.594216077e-17 0.0005935527582 -4.946540534e-16 0.0008695572291 0 -0.001995010466 3.638875909e-16 0.01956070278)
(0.001926355114 -4.01632176e-17 0.001076005576 -4.761086961e-16 0.0009227634213 0 -0.001760766598 3.376766165e-16 0.01946069233)
(0.001330933178 3.162645521e-17 0.001461415509 -4.56253405e-16 0.0009469486658 -1.160754004e-14 -0.00156567262 3.213042502e-16 0.01938954578)
(0.000878792128 9.175386892e-17 0.001671188258 -4.433858048e-16 0.000951229328 0 -0.00140530931 2.598988802e-16 0.01935723281)
(0.0005047461514 1.13377294e-16 0.00165923789 -4.370800187e-16 0.0009426599357 0 -0.001274565369 2.058969099e-16 0.01937196789)
(0.0001803091091 1.233274714e-16 0.001430852853 -4.234277642e-16 0.0009235477225 0 -0.001170128466 1.574840336e-16 0.01943199391)
(-2.778933233e-05 1.251968189e-16 0.001041394667 -4.133542187e-16 0.0008974855828 0 -0.001088686791 1.12614376e-16 0.01952344444)
(-0.0001219535439 1.273685786e-16 0.0005951178 -4.040160696e-16 0.0008696646678 0 -0.00102928475 6.965956404e-17 0.01963092576)
(-0.0001683381098 1.326112375e-16 0.0001620731482 -4.006030955e-16 0.0008422974535 0 -0.0009844843521 2.920543286e-17 0.01974122156)
(-0.0002059549375 1.349121884e-16 -0.0002442871266 -3.924643877e-16 0.0008159184601 0 -0.0009438675622 2.842332554e-18 0.01984824526)
(-0.0002624527165 1.290583233e-16 -0.0006228273909 -3.861541238e-16 0.0007903376083 0 -0.0009015107007 -2.130113935e-17 0.01995104366)
(-0.0003627937001 1.152500025e-16 -0.0009699955595 -3.777174382e-16 0.0007647064313 0 -0.0008538469565 -4.606039966e-17 0.02004925178)
(-0.0005170685994 9.49356956e-17 -0.001281739716 -3.735834857e-16 0.000737826304 0 -0.0007997480241 -5.733218801e-17 0.02014245364)
(-0.0007151289415 6.960915004e-17 -0.001556103828 -3.672486362e-16 0.0007086798577 0 -0.0007408597766 -6.94351277e-17 0.02023049612)
(-0.001748174804 7.015476359e-16 1.127996361e-05 -3.756549137e-15 -0.002836853211 0 -1.171984671e-05 -1.289060818e-16 0.01776452255)
(-0.002362217475 5.600639179e-16 1.440694673e-05 -1.884841952e-15 -0.002493318661 0 -3.988809509e-05 -3.675304057e-16 0.01781541262)
(-0.002436324758 1.771028566e-16 -1.398800747e-05 -1.251688863e-15 -0.0024116453 0 -0.0001005899706 -6.26008164e-16 0.01791995506)
(-0.002667008805 8.527462038e-18 -9.666457511e-05 -9.191706449e-16 -0.002445911294 4.482051145e-14 -0.0002127579921 -1.322134828e-15 0.01808085726)
(-0.002683040541 -5.702434644e-17 -0.0002525128316 -7.08800748e-16 -0.002514677454 0 -0.0003933372708 -1.312172776e-15 0.01830464157)
(-0.002136883424 -2.167473999e-17 -0.0004982645433 -5.889202985e-16 -0.002529783696 0 -0.0006567129137 -1.425385098e-15 0.01859882843)
(-0.001045949444 2.784508907e-17 -0.0008532443995 -4.99560412e-16 -0.002410717271 0 -0.00101923425 -1.622371505e-15 0.01895368205)
(0.0002728998279 3.578104763e-17 -0.001351571496 -4.39449228e-16 -0.00216273084 2.337641607e-14 -0.001507594083 -1.887452381e-15 0.019341929)
(0.001680981226 3.678898293e-17 -0.002023954338 -3.93494476e-16 -0.001824299528 0 -0.002137106069 -1.725021296e-15 0.01973307933)
(0.003241020189 9.767763927e-18 -0.002768154136 -3.596025546e-16 -0.00141566583 1.950903396e-14 -0.002793930095 -1.674046263e-15 0.02009259888)
(0.004967230907 -4.967035479e-17 -0.00336385906 -3.256436919e-16 -0.0009407404009 0 -0.003294666464 -1.454764778e-15 0.02038310386)
(0.006308563986 -1.398012226e-16 -0.003641219103 -2.95283706e-16 -0.000407631363 1.703495859e-14 -0.003571845952 -1.317035766e-15 0.02056739995)
(0.006539851865 3.980916504e-16 -0.003519392565 -2.598645459e-16 0.0001054963568 0 -0.00363734104 -1.028412193e-15 0.02061575215)
(0.005899005382 8.645108504e-16 -0.00301166213 -3.089112404e-16 0.0005146697676 1.533697504e-14 -0.003495220956 -7.969846295e-16 0.02053817686)
(0.005082061989 6.830871902e-16 -0.002241639286 -3.332945276e-16 0.0008154486134 0 -0.003170479994 -4.339241139e-16 0.02037211503)
(0.00432401851 5.433779605e-16 -0.001425305958 -3.515357342e-16 0.001033217892 0 -0.002787904918 -1.154007336e-16 0.02016360892)
(0.00359840483 4.250897517e-16 -0.0007016128288 -3.561037503e-16 0.001186078782 0 -0.002446422801 9.809815117e-17 0.01995420459)
(0.002891687165 3.373144732e-16 -7.268519584e-05 -3.580347785e-16 0.001286351353 -1.321180588e-14 -0.002146010633 2.960332178e-16 0.01976935306)
(0.002214777989 2.785043138e-16 0.0004822794748 -3.481311579e-16 0.001343896805 -1.284635336e-14 -0.001879200758 3.520435582e-16 0.01961104223)
(0.001585097168 2.19826424e-16 0.0009746585331 -3.517174996e-16 0.00136725272 0 -0.001647000671 2.865729636e-16 0.01947926763)
(0.001041194055 1.492892598e-16 0.001376673658 -3.438757382e-16 0.001363987078 0 -0.00145352741 2.308898959e-16 0.01938107958)
(0.0006209677971 7.472062393e-17 0.00161288982 -3.370011748e-16 0.001342444228 0 -0.001294927953 1.820109779e-16 0.01932585422)
(0.0002775563954 3.839664302e-16 0.001629542944 -3.252146423e-16 0.001310041942 0 -0.001165510435 1.37778018e-16 0.01932206251)
(-3.34491321e-05 6.918836586e-16 0.001423691043 -3.398422038e-16 0.001269074216 0 -0.00106233973 1.015858567e-16 0.0193701048)
(-0.0002517771332 6.337798917e-16 0.001035976448 -3.461759706e-16 0.001222080117 0 -0.0009819444996 6.850489715e-17 0.01945649741)
(-0.0003553933706 5.80835587e-16 0.00056568701 -3.555951657e-16 0.00117426331 0 -0.000924318869 3.797769987e-17 0.01956423699)
(-0.0004007947866 5.210233472e-16 9.828317188e-05 -3.598214005e-16 0.001128352669 0 -0.0008845073915 9.305582393e-18 0.01967798656)
(-0.0004296276509 4.328179534e-16 -0.0003434106845 -3.671177345e-16 0.001084978655 0 -0.0008516908528 -1.765220749e-17 0.01978905245)
(-0.0004679905407 5.746124713e-16 -0.0007584309906 -3.666930551e-16 0.001043996641 0 -0.0008188917088 -4.38743069e-17 0.01989574028)
(-0.0005413865158 7.265742902e-16 -0.001144217837 -3.746618845e-16 0.001004581259 0 -0.0007817341491 -6.533669178e-17 0.0199977678)
(-0.0006652056675 6.726382603e-16 -0.00149638963 -3.855657816e-16 0.0009654431741 0 -0.0007378962433 -8.702263037e-17 0.02009471822)
(-0.0008365628262 5.157471178e-16 -0.00181195965 -3.914820491e-16 0.0009253142366 0 -0.0006879817333 -1.0870032e-16 0.02018633167)
(-0.001037728209 3.704377573e-16 -0.002090458106 -3.87251214e-16 0.0008833965388 0 -0.0006349546792 -1.323871631e-16 0.02027268545)
(-0.001247940586 3.628180706e-16 -0.002332727823 -3.886170291e-16 0.0008394987408 0 -0.0005822180235 -1.570395076e-16 0.02035405778)
(-0.00145408495 3.554307417e-16 -0.002539110655 -3.89005765e-16 0.000793853494 0 -0.000531970743 -1.830695476e-16 0.02043068396)
(-0.001652937955 3.59301626e-16 -0.002708601876 -3.845107899e-16 0.000746815734 -5.320797958e-15 -0.0004848603029 -2.109715607e-16 0.02050262666)
(-0.001846485164 2.034898998e-16 -0.002839203919 -3.907038527e-16 0.0006986800047 5.316687643e-15 -0.0004405745376 -2.712825265e-16 0.02056980444)
(-0.002037547993 1.715859945e-17 -0.002928667905 -3.815985312e-16 0.0006496500371 5.316420353e-15 -0.0003985443017 -3.125451657e-16 0.02063208284)
(-0.002228628192 1.234597924e-16 -0.002974864454 -3.740474038e-16 0.0005998598265 0 -0.0003582371605 -3.11909927e-16 0.02068934364)
(-0.002421757661 2.456126629e-16 -0.002975901161 -3.719253519e-16 0.0005493878815 0 -0.0003192675032 -3.163399494e-16 0.02074150774)
(-0.002617455186 3.724503473e-16 -0.00293021455 -3.700239482e-16 0.0004982772844 0 -0.0002814903229 -3.246847761e-16 0.02078854746)
(-0.002813949291 5.09023939e-16 -0.002836643608 -3.722465473e-16 0.0004465779667 0 -0.0002450210233 -3.349530501e-16 0.02083049021)
(-0.003008031365 5.090557983e-16 -0.002694388553 -3.753399261e-16 0.000394380934 5.366116361e-15 -0.0002101257345 -3.474814363e-16 0.02086740941)
(-0.003196913354 5.154469303e-16 -0.002502826561 -3.753607242e-16 0.000341821171 0 -0.0001770169783 -3.394205131e-16 0.02089940147)
(-0.003379634332 3.930347205e-16 -0.002261333728 -3.788650531e-16 0.0002890500305 0 -0.0001457363339 -3.320810505e-16 0.02092656417)
(-0.003557194495 4.276795911e-16 -0.001969213318 -3.75943692e-16 0.0002362013184 -5.431623853e-15 -0.0001161795621 -3.261994223e-16 0.02094898784)
(-0.003729974327 5.938567016e-16 -0.001625673274 -3.801544985e-16 0.0001833699408 1.091753077e-14 -8.818076941e-05 -3.390602046e-16 0.02096675524)
(-0.003887546407 4.934629969e-16 -0.001229736705 -3.822201621e-16 0.0001306555053 0 -6.1570629e-05 -3.331305651e-16 0.02097993988)
(-0.004001715146 3.019454493e-16 -0.000780321746 -3.826034898e-16 7.839920839e-05 0 -3.620230046e-05 -3.286291488e-16 0.02098860306)
(-0.004257400316 1.055862699e-16 -0.0002704684632 -3.805027278e-16 2.736055717e-05 0 -1.189845865e-05 -3.261257197e-16 0.02099279439)
(-0.001334180808 2.093124196e-15 -0.0002751485112 -5.682183668e-15 -0.002270469433 0 -0.0001976065803 1.126446538e-16 0.02056105232)
(-0.001586040992 2.642138745e-15 -0.0006121599828 -3.760903877e-15 -0.001938166921 0 -0.0005252028143 3.224542503e-16 0.0206194909)
(-0.001159749094 2.632435283e-15 -0.001014604847 -3.230921416e-15 -0.001720700229 0 -0.0008757360253 5.638065715e-16 0.02072928526)
(-0.0006161022917 8.528299585e-16 -0.00150876987 -3.103283522e-15 -0.001512052624 0 -0.001309705119 3.512915709e-16 0.02087874309)
(0.0001409064883 -2.448585466e-16 -0.00210797704 -2.270604354e-15 -0.001254367707 0 -0.001841489418 2.646317362e-16 0.02105191668)
(0.001092054763 5.354390193e-16 -0.002751312313 -1.910156078e-15 -0.0009420280575 0 -0.002410349933 -3.360489097e-17 0.02122762748)
(0.002267096215 1.101891001e-15 -0.003305233701 -1.754552143e-15 -0.0005727639924 0 -0.002896855759 -2.206655014e-16 0.02138109232)
(0.003656481637 4.778336327e-16 -0.003682154133 -1.702578989e-15 -0.0001394599256 0 -0.003244528899 -3.341439934e-16 0.0214846846)
(0.004837075602 2.004942546e-17 -0.003833550478 -1.480838394e-15 0.0003539344562 0 -0.003454401594 -2.057910684e-16 0.02150747582)
(0.005201641402 -2.432284559e-16 -0.003706130945 -1.368906122e-15 0.0008313237087 0 -0.00352361764 -2.25439949e-16 0.02142052923)
(0.004847585773 -5.200116003e-16 -0.003281194134 -1.18337528e-15 0.00120523991 0 -0.003436074282 -3.683284152e-16 0.02122660515)
(0.004321278194 -7.734558944e-16 -0.002605073116 -1.068594831e-15 0.001470268178 0 -0.003180509497 -4.737945503e-16 0.02095527093)
(0.00382980136 -1.037076379e-15 -0.001821820367 -9.06837138e-16 0.001656891123 1.636301726e-14 -0.002828471117 -5.632989183e-16 0.02064402576)
(0.003329553138 -1.272821246e-15 -0.001082383071 -7.909599821e-16 0.001783941834 0 -0.002485101678 -4.413835225e-16 0.02033101424)
(0.002800384214 -1.55357254e-15 -0.0004332279665 -6.369343875e-16 0.001862092428 0 -0.002181864324 -3.332679805e-16 0.02004650228)
(0.002256334255 -1.327598319e-15 0.0001364095438 -5.215152214e-16 0.001899685188 0 -0.001911950051 -2.319185883e-16 0.01980527586)
(0.001717038197 -1.185302791e-15 0.0006430827604 -4.292476283e-16 0.001904159084 0 -0.001671193157 -1.33469511e-16 0.01960242697)
(0.001198611139 -6.368945057e-16 0.001096025321 -3.537833623e-16 0.001882155857 0 -0.001461104455 -3.403717132e-17 0.01943533391)
(0.0007342489442 2.848479135e-16 0.001469828013 -3.280715376e-16 0.00183950159 0 -0.001285588456 -1.399467087e-18 0.01930901115)
(0.0003677608994 6.945344058e-16 0.001693073375 -3.447708417e-16 0.001783028743 0 -0.001141650234 -3.064228287e-17 0.01923103256)
(6.811666249e-05 6.642508953e-16 0.001710105283 -3.553047149e-16 0.001719622736 0 -0.001024067393 -1.186130805e-16 0.01920888485)
(-0.0002147748183 6.481815011e-16 0.001511601583 -3.720103313e-16 0.001651124759 0 -0.0009308517378 -1.999486395e-16 0.01924409142)
(-0.0004301070274 6.406242353e-16 0.001122865222 -3.828902933e-16 0.001578841792 0 -0.0008586241101 -2.74138552e-16 0.01932405775)
(-0.0005380377064 6.313146506e-16 0.000631070099 -3.911527495e-16 0.001507457142 0 -0.0008076320935 -2.915287379e-16 0.01943076329)
(-0.0005806795108 6.176015656e-16 0.00013051434 -3.94095474e-16 0.001440018413 0 -0.0007754664512 -3.043797846e-16 0.01954723605)
(-0.0006000222518 6.009944776e-16 -0.0003454049809 -4.059247703e-16 0.001377189164 0 -0.0007521583551 -3.143883244e-16 0.0196621395)
(-0.0006208667378 5.819096637e-16 -0.0007949149071 -4.097190786e-16 0.001318780899 0 -0.0007300673176 -3.245198395e-16 0.01977255591)
(-0.0006683190462 5.711393213e-16 -0.001216924526 -4.166980401e-16 0.001263928299 0 -0.0007044374998 -3.404257511e-16 0.01987820579)
(-0.0007620171046 5.398989643e-16 -0.001607530679 -4.186144852e-16 0.001211215394 1.1134058e-14 -0.0006721855754 -3.350841277e-16 0.0199787077)
(-0.0009062940345 5.13948872e-16 -0.001963170691 -4.209751037e-16 0.001159081016 0 -0.000632895613 -2.734803556e-16 0.0200737014)
(-0.001088279277 5.1619651e-16 -0.002282490336 -4.21072321e-16 0.001106324824 0 -0.0005887972406 -2.175239554e-16 0.02016317096)
(-0.001286507074 5.254572897e-16 -0.002565958817 -4.242619877e-16 0.001052404781 -5.464707867e-15 -0.0005432895402 -1.774162628e-16 0.02024740701)
(-0.001483877315 5.376618521e-16 -0.00281425976 -4.278271703e-16 0.0009973667802 0 -0.0004991409601 -2.044655535e-16 0.02032675211)
(-0.00167422015 5.425899692e-16 -0.003026995278 -4.317522177e-16 0.0009415093109 0 -0.0004576322091 -2.286507102e-16 0.02040139111)
(-0.001858772537 5.504852179e-16 -0.003202533776 -4.333812387e-16 0.0008851058266 0 -0.0004188032524 -2.498212937e-16 0.02047132723)
(-0.002040452568 7.261176062e-16 -0.00333867881 -4.327151269e-16 0.0008283339648 0 -0.0003821716756 -2.686207887e-16 0.02053646822)
(-0.002221752933 7.770579324e-16 -0.003433227529 -4.42926729e-16 0.0007712964316 0 -0.0003472041516 -2.839450381e-16 0.02059671678)
(-0.002404825241 4.180806797e-16 -0.003484157878 -4.481771336e-16 0.0007140429473 0 -0.0003134609063 -3.136340102e-16 0.02065201078)
(-0.002591045771 2.052697413e-16 -0.003489707443 -4.445037933e-16 0.0006565808789 0 -0.0002806847754 -3.162168739e-16 0.02070233668)
(-0.002779829663 2.480964159e-16 -0.003448489073 -4.384693562e-16 0.0005989061201 0 -0.0002488881968 -3.033251939e-16 0.02074773994)
(-0.002968608431 2.757007756e-16 -0.003359545426 -4.35330208e-16 0.0005410466642 0 -0.000218325974 -3.017171349e-16 0.02078832244)
(-0.003154311887 2.954516254e-16 -0.00322221273 -4.350819592e-16 0.0004830813025 0 -0.0001892981522 -2.860369039e-16 0.02082422521)
(-0.003334964228 1.726687323e-16 -0.003035910529 -4.310786972e-16 0.0004251248669 0 -0.0001619596244 -2.687362191e-16 0.02085560261)
(-0.003510073729 4.006845531e-17 -0.002800010637 -4.252688434e-16 0.0003672966113 0 -0.0001362800069 -2.506426145e-16 0.02088260585)
(-0.003680047996 3.119489099e-17 -0.002513824396 -4.196221472e-16 0.0003097011347 0 -0.0001121260792 -2.300999332e-16 0.02090537813)
(-0.003846160107 1.318679385e-16 -0.002176625004 -4.154667961e-16 0.0002524221651 5.516213928e-15 -8.934730601e-05 -2.194473695e-16 0.02092405604)
(-0.004008830265 1.180254082e-16 -0.001787568751 -4.121290153e-16 0.0001955092619 -5.54377815e-15 -6.779025359e-05 -1.808699256e-16 0.02093876685)
(-0.004157763787 -1.089516464e-17 -0.001345548172 -4.068839333e-16 0.0001390198996 0 -4.730331785e-05 -1.513619348e-16 0.02094962356)
(-0.004264936775 -1.666628248e-17 -0.0008493325965 -4.012232148e-16 8.325466499e-05 -5.606516974e-15 -2.778027395e-05 -1.184847137e-16 0.0209567194)
(-0.004516022445 -5.916158677e-18 -0.0002931324082 -3.962420462e-16 2.893427807e-05 -5.641563924e-15 -9.097178378e-06 -1.01141684e-16 0.02096013529)
(0.0007020861608 -8.42173398e-16 -0.0004286506053 -1.577135718e-15 0.00104832615 0 -0.0003232950761 -3.844032599e-17 0.02264663008)
(0.001157780426 -1.757752312e-15 -0.0009095504811 2.134045829e-16 0.0009708762129 0 -0.0008371588115 -1.006310205e-16 0.02263227992)
(0.001656303572 3.786705407e-16 -0.001382972423 9.663132189e-16 0.001086299502 0 -0.001292587538 -1.510594999e-16 0.02259511038)
(0.002441029533 1.511669705e-15 -0.001808844653 4.796545963e-17 0.001327426256 0 -0.001715137986 -1.528884106e-16 0.02252320841)
(0.003207719649 2.067447452e-15 -0.002129816502 -1.398922537e-16 0.001652957754 0 -0.002070283158 -5.100595851e-16 0.02239834166)
(0.003578917904 2.564942462e-15 -0.00230054786 -6.6435072e-16 0.001977763989 0 -0.002337490162 -4.405819019e-16 0.02219971166)
(0.003547829558 1.672851204e-15 -0.002287691471 -8.653414929e-16 0.002218343243 0 -0.002497792435 -3.761505863e-16 0.02192499069)
(0.003409674479 -1.08896151e-16 -0.002071930203 -9.241457136e-16 0.002375099228 0 -0.002527391308 -3.175114161e-16 0.02159051084)
(0.003287225737 -5.449177482e-16 -0.001657398373 -6.728502425e-16 0.002481540161 0 -0.002409158916 -2.339098803e-16 0.02121536131)
(0.003129357201 9.800348899e-16 -0.001124913814 -6.287943153e-16 0.002553577604 0 -0.002192344928 -1.329406427e-16 0.02082250425)
(0.002898668717 1.405071563e-15 -0.0005910427499 -7.174271428e-16 0.002595273201 0 -0.00196505069 -1.484079206e-16 0.02043820326)
(0.002594937635 1.023215284e-15 -0.0001033099241 -7.506578029e-16 0.00260855597 0 -0.001758961664 -1.37659213e-16 0.02008697047)
(0.002228582619 1.343990938e-16 0.0003427765271 -7.627332806e-16 0.002595534196 0 -0.001565936084 -2.190724176e-16 0.0197853153)
(0.001820676651 -6.054228836e-16 0.0007530663276 -6.719730125e-16 0.002558530334 0 -0.001383671821 -1.562560311e-16 0.01953253911)
(0.001398611841 -6.858021478e-16 0.001131292825 -5.914091473e-16 0.002501140879 0 -0.00121595384 -2.819491315e-16 0.01932148552)
(0.0009798464972 -7.830697791e-16 0.001477507387 -5.260824844e-16 0.002427445784 0 -0.001067355368 -4.784018032e-16 0.01915010443)
(0.0005906076321 -9.098845281e-16 0.001762095183 -4.462301829e-16 0.002341094036 0 -0.0009422965635 -6.501417925e-16 0.01902271282)
(0.000271018944 -5.570614644e-16 0.001917569781 -3.79253771e-16 0.002246903481 0 -0.0008394217887 -8.056582736e-16 0.0189454795)
(2.247664617e-06 2.656487582e-16 0.001893476319 -3.493546207e-16 0.0021503876 0 -0.0007558118015 -8.804159713e-16 0.01892512481)
(-0.0002601527818 1.057585711e-15 0.001677633235 -3.659122477e-16 0.002052634417 0 -0.0006909630476 -8.862131644e-16 0.01896378317)
(-0.0004734113697 1.364099783e-15 0.001279334735 -4.132675581e-16 0.001953901387 0 -0.0006421257732 -8.91157896e-16 0.01905012016)
(-0.0005908411227 1.212998372e-15 0.0007669771462 -4.442973569e-16 0.001858171959 0 -0.0006103140081 -8.971946656e-16 0.01916624078)
(-0.0006422871907 1.057328191e-15 0.0002349999686 -4.689986091e-16 0.001768498065 0 -0.0005955542494 -9.050086222e-16 0.01929451331)
(-0.0006655192132 9.185364187e-16 -0.0002741096593 -4.907136825e-16 0.001685462632 0 -0.0005896097326 -8.615251148e-16 0.01942164981)
(-0.0006817275963 8.08940958e-16 -0.0007565914383 -4.981316734e-16 0.001608843634 0 -0.0005847073625 -8.177724375e-16 0.01954337006)
(-0.0007143728344 7.390284527e-16 -0.001212640669 -5.08911177e-16 0.001537781448 0 -0.0005760126287 -7.711819744e-16 0.01965940914)
(-0.0007853750495 7.307391786e-16 -0.001639176812 -5.14501883e-16 0.001470797805 0 -0.0005600171396 -7.645992253e-16 0.0197695771)
(-0.0009047834331 5.177228335e-16 -0.002032427423 -5.234161588e-16 0.001406130421 0 -0.000535472455 -7.457632897e-16 0.01987352911)
(-0.001066126905 1.102356563e-17 -0.002390362346 -5.134733196e-16 0.001342242709 0 -0.0005039048719 -7.223439308e-16 0.01997118807)
(-0.001251474073 -2.681571085e-16 -0.002713117585 -4.960458218e-16 0.001278209727 0 -0.0004686926251 -6.990915634e-16 0.02006283074)
(-0.001442449699 -1.53565132e-16 -0.003001686937 -4.739338154e-16 0.001213766259 0 -0.0004332357908 -6.534266349e-16 0.02014889181)
(-0.001628800827 4.115826277e-16 -0.003256285207 -4.606778446e-16 0.001149055485 0 -0.0003995541848 -6.02153205e-16 0.0202297175)
(-0.001808850274 8.300728944e-16 -0.003475710055 -4.722717213e-16 0.001084313677 0 -0.0003681148717 -5.64226964e-16 0.020305461)
(-0.001984802994 7.77783443e-16 -0.003657876366 -4.815167626e-16 0.001019711526 0 -0.0003385569675 -5.213954552e-16 0.02037612846)
(-0.002159285469 7.285966855e-16 -0.00380055523 -4.830701146e-16 0.0009553379012 0 -0.0003103823315 -4.916283317e-16 0.02044167712)
(-0.002334697736 6.867150105e-16 -0.00390165908 -4.876868263e-16 0.0008912219558 0 -0.0002831655733 -4.580641671e-16 0.02050208133)
(-0.002513101057 6.476296895e-16 -0.003959296213 -4.913263802e-16 0.0008273433087 0 -0.0002566040605 -4.184572345e-16 0.02055735427)
(-0.002695081674 3.356363568e-16 -0.003971868149 -4.966564661e-16 0.0007636522091 0 -0.0002306101989 -3.707398036e-16 0.0206075625)
(-0.002878955448 1.945739959e-17 -0.003938192449 -4.875940093e-16 0.0007001153672 0 -0.000205366446 -3.627835698e-16 0.02065283262)
(-0.003061627435 9.987793346e-17 -0.003857480314 -4.788293756e-16 0.0006367524126 0 -0.0001812163398 -3.438564304e-16 0.02069334254)
(-0.003240446235 1.895990154e-16 -0.00372915194 -4.730172476e-16 0.000573637425 0 -0.0001584441648 -3.393953478e-16 0.02072929553)
(-0.003414359779 1.57125824e-16 -0.003552647672 -4.701474291e-16 0.0005108670986 0 -0.0001371458574 -3.265688319e-16 0.02076089564)
(-0.003583443189 1.228427013e-16 -0.003327355663 -4.648163552e-16 0.0004485299795 0 -0.0001172610018 -3.315076977e-16 0.02078833822)
(-0.003747982941 8.409167114e-17 -0.003052617302 -4.596901885e-16 0.000386699514 0 -9.866022133e-05 -3.436545686e-16 0.02081181106)
(-0.003908435651 4.051333252e-17 -0.002727729693 -4.527069071e-16 0.0003254372786 0 -8.120048584e-05 -3.522058857e-16 0.02083149423)
(-0.004066179702 -1.417498417e-16 -0.002351894371 -4.472396634e-16 0.0002647883539 0 -6.473577048e-05 -3.582380658e-16 0.02084755643)
(-0.004221772889 -2.017345133e-16 -0.001924118214 -4.364163683e-16 0.0002047642541 0 -4.913195745e-05 -3.526780261e-16 0.02086014904)
(-0.00436439715 -2.521099579e-16 -0.001443081949 -4.298046885e-16 0.0001453873592 0 -3.427734481e-05 -3.552717898e-16 0.0208694023)
(-0.004465684137 -3.051284814e-16 -0.0009073600827 -4.191137573e-16 8.694042284e-05 0 -2.011609973e-05 -3.586750091e-16 0.02087542019)
(-0.004712092848 -1.060303007e-16 -0.0003121630063 -4.111553714e-16 3.012293567e-05 0 -6.556359693e-06 -3.601848704e-16 0.02087828531)
(0.002471909396 2.50493971e-15 -0.0001721918485 -6.35123954e-15 0.00402532224 0 -0.0002006605178 -3.250730288e-16 0.02115590899)
(0.003306153965 3.133423621e-15 -0.0003341878856 -4.347216962e-15 0.003530236037 0 -0.0005151601476 -9.273322126e-16 0.02108938397)
(0.00328697211 2.828488814e-15 -0.0004472426689 -3.761563327e-15 0.003390743449 6.393096841e-14 -0.00077015029 -1.600007132e-15 0.02095750807)
(0.003382487412 2.88371693e-15 -0.0004784556462 -3.490104173e-15 0.003378662118 0 -0.0009611854269 -1.408185623e-15 0.0207676531)
(0.003399819987 1.114502754e-15 -0.000390643211 -3.3822036e-15 0.003382408939 3.754337655e-14 -0.001053291976 -1.476168825e-15 0.02052913465)
(0.00336584906 -1.424469244e-16 -0.000203234514 -2.698788271e-15 0.003383757678 0 -0.00106290299 -1.14229599e-15 0.02025505926)
(0.003276101434 4.469102395e-16 2.519368562e-05 -2.327861407e-15 0.003376274001 0 -0.001041053482 -9.971897593e-16 0.01996141184)
(0.003125021922 -3.219102245e-16 0.0002654884344 -2.110216036e-15 0.003355930672 -2.448567956e-14 -0.001008848975 -9.881300773e-16 0.0196659802)
(0.002908455526 -1.029357456e-15 0.0005171883813 -1.757131608e-15 0.003320538984 2.22136144e-14 -0.0009600814524 -1.24531695e-15 0.0193872569)
(0.002628031741 -6.860307642e-16 0.0007776896816 -1.516643937e-15 0.003268360198 2.043478147e-14 -0.0008928139468 -1.241090412e-15 0.01914099351)
(0.002297498806 -4.686900586e-16 0.001040006475 -1.327258749e-15 0.003199219302 0 -0.0008126246048 -1.034154255e-15 0.01893049046)
(0.001928390486 -3.068792099e-16 0.001300080993 -1.184907017e-15 0.003114546234 0 -0.0007255282242 -9.203901876e-16 0.01875094307)
(0.001537586819 -9.352542626e-16 0.00155611209 -1.079512191e-15 0.003015743936 0 -0.0006373924643 -8.73452652e-16 0.01860000635)
(0.001152476499 -8.388760854e-16 0.001796971837 -9.177615382e-16 0.00290569254 0 -0.0005567557717 -9.813774987e-16 0.01848104432)
(0.0007963574416 4.961123186e-16 0.001985319079 -8.408673425e-16 0.002788115442 0 -0.0004890097731 -1.116420789e-15 0.01840045015)
(0.0004903340674 1.032535902e-15 0.002060926085 -8.59172755e-16 0.002666873313 0 -0.0004331829431 -1.275900375e-15 0.01836473785)
(0.0002179937075 9.498933173e-16 0.001985594304 -8.645272436e-16 0.002546010346 0 -0.0003884829148 -1.468471853e-15 0.01838108328)
(-5.073075698e-05 8.805469992e-16 0.001747229838 -8.851925709e-16 0.002425966701 1.383873576e-14 -0.000356161949 -1.699851392e-15 0.01845212022)
(-0.0002783059389 8.186419915e-16 0.001342701287 -8.738477764e-16 0.002306743381 1.34559417e-14 -0.0003346854814 -1.80424099e-15 0.01856797649)
(-0.0004229191158 7.743435604e-16 0.0008232366404 -8.713633187e-16 0.002191817114 1.312170645e-14 -0.0003257902313 -1.776103087e-15 0.01871233141)
(-0.0005038372889 7.526194911e-16 0.0002764313554 -8.644641957e-16 0.002084072633 0 -0.0003312487343 -1.624038289e-15 0.01886839566)
(-0.0005510126201 7.565541093e-16 -0.0002510404355 -8.594603361e-16 0.001984196026 0 -0.0003447207809 -1.502393117e-15 0.01902207298)
(-0.0005827973666 3.792180408e-16 -0.0007532229041 -8.501097334e-16 0.001892050437 0 -0.0003589607244 -1.414239853e-15 0.01916791282)
(-0.0006202484335 -1.22653853e-17 -0.001231079958 -8.246603125e-16 0.001806880787 0 -0.0003693446076 -1.356047595e-15 0.01930567495)
(-0.0006855692949 -6.360170055e-17 -0.001682195387 -7.98311e-16 0.001727276575 0 -0.0003720580818 -1.325196392e-15 0.01943552724)
(-0.0007931557648 1.992275809e-16 -0.002102638616 -7.709241173e-16 0.001651423181 0 -0.0003650755442 -1.263190488e-15 0.01955732716)
(-0.0009431150378 3.828014607e-16 -0.002489677804 -7.595020109e-16 0.001577559686 0 -0.00034910104 -1.219599812e-15 0.01967106928)
(-0.001122147474 2.314894919e-16 -0.002842826545 -7.4928418e-16 0.001504432346 -1.158138868e-14 -0.0003271510467 -1.140242852e-15 0.01977710558)
(-0.001311895459 1.512411824e-16 -0.003163012631 -7.317401044e-16 0.00143148387 0 -0.0003029224654 -1.142654698e-15 0.01987603191)
(-0.001498917523 -7.403921069e-17 -0.003450951165 -7.180824945e-16 0.001358709146 0 -0.000279136597 -1.164229117e-15 0.01996842457)
(-0.001678874687 -3.157168874e-16 -0.003706113878 -6.943102595e-16 0.001286320886 5.66512913e-15 -0.0002569539101 -1.195819921e-15 0.02005465809)
(-0.001853244532 -2.438567067e-16 -0.003926803579 -6.715056078e-16 0.001214499449 1.127248758e-14 -0.0002363925006 -1.202928037e-15 0.02013490355)
(-0.002024761235 -1.684421145e-16 -0.004110848097 -6.52292316e-16 0.001143334433 0 -0.0002170517638 -1.118097732e-15 0.02020923247)
(-0.002195841499 -1.020499107e-16 -0.004256076461 -6.310761566e-16 0.00107284621 0 -0.0001985013045 -1.028308738e-15 0.02027770871)
(-0.002368702255 -2.523499761e-17 -0.004360462495 -6.186926193e-16 0.001003005287 0 -0.0001803844261 -9.475454906e-16 0.0203404218)