/*--------------------------------*- C++ -*----------------------------------*\
  =========                 |
  \\      /  F ield         | OpenFOAM: The Open Source CFD Toolbox
   \\    /   O peration     | Website:  https://openfoam.org
    \\  /    A nd           | Version:  7
     \\/     M anipulation  |
\*---------------------------------------------------------------------------*/
FoamFile
{
    version     2.0;
    format      ascii;
    class       surfaceScalarField;
    location    "0.0003";
    object      phi;
}
// * * * * * * * * * * * * * * * * * * * * * * * * * * * * * * * * * * * * * //

dimensions      [1 0 -1 0 0 0 0];

internalField   nonuniform List<scalar> 
2258
(
-1.180733594e-14
4.593622194e-11
-4.667721357e-14
1.344162524e-10
-1.03946504e-13
2.179645901e-10
-1.833333967e-13
2.967858999e-10
-2.85045538e-13
3.710781101e-10
-4.094551676e-13
4.410322862e-10
-5.574071151e-13
5.068333612e-10
-7.305984637e-13
5.686604491e-10
-9.320660987e-13
6.266868774e-10
-1.10566563e-12
6.810191449e-10
-1.195788199e-12
7.318184667e-10
-1.182951675e-12
7.792770517e-10
-1.048955124e-12
8.234444772e-10
-7.747610652e-13
8.644978546e-10
-3.683870233e-13
9.02621504e-10
2.280901589e-14
9.379504978e-10
3.942891824e-13
9.706182201e-10
7.386084337e-13
1.000753207e-09
1.049404225e-12
1.028478729e-09
1.322306007e-12
1.053912586e-09
1.555306038e-12
1.077166747e-09
1.749011316e-12
1.0983473e-09
1.906283382e-12
1.117554807e-09
2.03166627e-12
1.134884607e-09
2.130482444e-12
1.150427491e-09
2.208490258e-12
1.164269724e-09
2.271772297e-12
1.176493417e-09
2.325622548e-12
1.187177706e-09
2.373725134e-12
1.196399145e-09
2.417365562e-12
1.20423258e-09
2.455243094e-12
1.210751211e-09
2.48383079e-12
1.216026552e-09
2.498681833e-12
1.220127441e-09
1.223119064e-09
-1.320277484e-14
4.594942471e-11
-5.21350536e-14
1.344551847e-10
-1.166492764e-13
2.180291043e-10
-2.075106001e-13
2.968767612e-10
-3.26440721e-13
3.711970402e-10
-4.542789445e-13
4.411601244e-10
-5.594656108e-13
5.069385478e-10
-6.24256679e-13
5.687252402e-10
-6.293692794e-13
6.2669199e-10
-5.558106449e-13
6.809455863e-10
-3.833065386e-13
7.316459626e-10
-8.998808704e-14
7.789837333e-10
2.462893557e-13
8.231081997e-10
5.781491009e-13
8.641659949e-10
9.00508489e-13
9.022991446e-10
1.205931484e-12
9.376450748e-10
1.487905483e-12
9.703362461e-10
1.741303381e-12
1.000499809e-09
1.962913619e-12
1.028257118e-09
2.151858656e-12
1.053723641e-09
2.309267455e-12
1.077009339e-09
2.437707537e-12
1.09821886e-09
2.541238861e-12
1.117451275e-09
2.624255843e-12
1.13480159e-09
2.691767988e-12
1.150359979e-09
2.748657812e-12
1.164212834e-09
2.798747094e-12
1.176443327e-09
2.843972938e-12
1.18713248e-09
2.883887825e-12
1.19635923e-09
2.915860085e-12
1.204200607e-09
2.935910109e-12
1.210731161e-09
2.940239608e-12
1.216022222e-09
2.92639761e-12
1.220141283e-09
2.893605477e-12
1.223151856e-09
2.842094468e-12
1.225114406e-09
2.772284477e-12
1.226086758e-09
2.684504364e-12
1.226124336e-09
2.578943707e-12
1.225280204e-09
2.455695548e-12
1.223605178e-09
2.314699195e-12
1.221147933e-09
2.155882012e-12
1.217954976e-09
1.97933984e-12
1.214070588e-09
1.785452427e-12
1.209536851e-09
1.574846507e-12
1.204393868e-09
1.348231927e-12
1.198679794e-09
1.106324063e-12
1.192431108e-09
8.498446797e-13
1.185682483e-09
5.795006089e-13
1.178467137e-09
2.960040005e-13
1.170816579e-09
1.162760983e-09
-1.016096557e-14
4.595958568e-11
-3.785978972e-14
1.344828835e-10
-7.594050846e-14
2.18067185e-10
-1.139433891e-13
2.969147641e-10
-1.385328945e-13
3.712216297e-10
-1.345249327e-13
4.411561165e-10
-8.43428993e-14
5.068883658e-10
3.082925527e-14
5.68610068e-10
2.322087901e-13
6.264906104e-10
4.823452667e-13
6.806954498e-10
7.432882952e-13
7.313850196e-10
1.011684788e-12
7.787153368e-10
1.281706401e-12
8.228381781e-10
1.545609436e-12
8.639020919e-10
1.796457667e-12
9.020482964e-10
2.02849232e-12
9.374130401e-10
2.237533129e-12
9.701272053e-10
2.421402481e-12
1.00031594e-09
2.579371913e-12
1.028099149e-09
2.712604034e-12
1.053590409e-09
2.823573469e-12
1.076898369e-09
2.915165526e-12
1.098127268e-09
2.991180337e-12
1.117375261e-09
3.055867343e-12
1.134736903e-09
3.112955241e-12
1.150302891e-09
3.164809839e-12
1.164160979e-09
3.211690091e-12
1.176396447e-09
3.251808814e-12
1.187092361e-09
3.281729921e-12
1.196329309e-09
3.297561144e-12
1.204184776e-09
3.296298857e-12
1.210732423e-09
3.276602378e-12
1.216041919e-09
3.238498822e-12
1.220179387e-09
3.182373988e-12
1.223207981e-09
3.108552802e-12
1.225188227e-09
3.017225151e-12
1.226178086e-09
2.908478765e-12
1.226233082e-09
2.782289177e-12
1.225406393e-09
2.638523448e-12
1.223748944e-09
2.477130989e-12
1.221309326e-09
2.298288134e-12
1.218133819e-09
2.10244424e-12
1.214266432e-09
1.890217367e-12
1.209749078e-09
1.662259459e-12
1.204621826e-09
1.419218072e-12
1.198922836e-09
1.161750156e-12
1.192688576e-09
8.904916331e-13
1.185953742e-09
6.06080994e-13
1.178751547e-09
3.090461613e-13
1.171113614e-09
1.163070029e-09
4.938701036e-15
4.595464698e-11
2.15204256e-14
1.344663018e-10
5.648625673e-14
2.180322192e-10
1.207320461e-13
2.968505183e-10
2.284517472e-13
3.7111391e-10
3.752150729e-13
4.410093532e-10
5.457625895e-13
5.067178183e-10
7.385752123e-13
5.684172554e-10
9.509972829e-13
6.262781884e-10
1.178484044e-12
6.80467963e-10
1.414391611e-12
7.31149112e-10
1.652289716e-12
7.784774387e-10
1.885150255e-12
8.226053176e-10
2.106642251e-12
8.636805999e-10
2.312498629e-12
9.0184244e-10
2.499831413e-12
9.372257073e-10
2.666802758e-12
9.699602339e-10
2.812970486e-12
1.000169772e-09
2.939426038e-12
1.027972693e-09
3.04768334e-12
1.053482152e-09
3.140375375e-12
1.076805677e-09
3.221189477e-12
1.098046454e-09
3.293218409e-12
1.117303232e-09
3.35898966e-12
1.134671132e-09
3.419409669e-12
1.150242471e-09
3.473515329e-12
1.164106873e-09
3.51863881e-12
1.176351324e-09
3.551200589e-12
1.1870598e-09
3.568006428e-12
1.196312503e-09
3.567128636e-12
1.204185654e-09
3.548056521e-12
1.210751495e-09
3.511012405e-12
1.216078963e-09
3.456324413e-12
1.220234075e-09
3.384227575e-12
1.223280078e-09
3.294837358e-12
1.225277617e-09
3.188178121e-12
1.226284745e-09
3.064118639e-12
1.226357142e-09
2.922513017e-12
1.225547999e-09
2.763368563e-12
1.223908089e-09
2.586965182e-12
1.221485729e-09
2.393819348e-12
1.218326965e-09
2.1845277e-12
1.214475724e-09
1.959691615e-12
1.209973914e-09
1.71991467e-12
1.204861603e-09
1.465792589e-12
1.199176958e-09
1.197922291e-12
1.192956446e-09
9.168536693e-13
1.18623481e-09
6.231430984e-13
1.179045258e-09
3.173474339e-13
1.17141941e-09
1.163387376e-09
1.775390012e-14
4.593689308e-11
6.987603683e-14
1.344141797e-10
1.548230313e-13
2.179472722e-10
2.711569049e-13
2.967341844e-10
4.167414451e-13
3.709683255e-10
5.889868447e-13
4.408371078e-10
7.84006936e-13
5.065227982e-10
9.970136358e-13
5.682042487e-10
1.222633526e-12
6.260525685e-10
1.454342708e-12
6.802362538e-10
1.686314936e-12
7.309171398e-10
1.913060952e-12
7.782506927e-10
2.128718315e-12
8.223896602e-10
2.330982957e-12
8.634783352e-10
2.517830203e-12
9.016555927e-10
2.68738771e-12
9.370561498e-10
2.839449393e-12
9.698081722e-10
2.974350465e-12
1.000034871e-09
3.093886456e-12
1.027853157e-09
3.200634715e-12
1.053375403e-09
3.297263984e-12
1.076709048e-09
3.386138131e-12
1.09795758e-09
3.468532387e-12
1.117220837e-09
3.544180035e-12
1.134595484e-09
3.611223181e-12
1.150175427e-09
3.666637034e-12
1.16405146e-09
3.707252026e-12
1.176310709e-09
3.73076231e-12
1.187036289e-09
3.736196589e-12
1.196307069e-09
3.723611053e-12
1.20419824e-09
3.693329881e-12
1.210781777e-09
3.645619049e-12
1.216126673e-09
3.580632825e-12
1.220299061e-09
3.498431606e-12
1.223362279e-09
3.398965926e-12
1.225377083e-09
3.282073593e-12
1.226401637e-09
3.147654811e-12
1.226491561e-09
2.995817426e-12
1.225699836e-09
2.826928197e-12
1.224076978e-09
2.641522518e-12
1.221671135e-09
2.440170578e-12
1.218528317e-09
2.223432927e-12
1.214692461e-09
1.99188871e-12
1.210205458e-09
1.746071388e-12
1.20510742e-09
1.486505872e-12
1.199436523e-09
1.213676474e-12
1.193229276e-09
9.28109421e-13
1.186520377e-09
6.302927043e-13
1.179343075e-09
3.207614478e-13
1.171728941e-09
1.163708138e-09
2.126100383e-14
4.591563207e-11
8.322963182e-14
1.34352211e-10
1.826653627e-13
2.178478365e-10
3.157441167e-13
2.966011057e-10
4.779562335e-13
3.708061134e-10
6.64025218e-13
4.406510388e-10
8.685233925e-13
5.063183e-10
1.085351358e-12
5.679874208e-10
1.309044998e-12
6.258288748e-10
1.533681249e-12
6.800116176e-10
1.755598477e-12
7.306952226e-10
1.96945399e-12
7.780368372e-10
2.172851554e-12
8.221862626e-10
2.364151965e-12
8.632870348e-10
2.541290761e-12
9.01478454e-10
2.703409333e-12
9.368940313e-10
2.85110013e-12
9.696604814e-10
2.986185878e-12
9.998997852e-10
3.110504212e-12
1.027728839e-09
3.226034576e-12
1.053259873e-09
3.334170714e-12
1.076600912e-09
3.435130446e-12
1.09785662e-09
3.527729135e-12
1.117128239e-09
3.609468691e-12
1.134513744e-09
3.677388644e-12
1.150107507e-09
3.728997928e-12
1.16399985e-09
3.762930181e-12
1.176276776e-09
3.778983788e-12
1.187020236e-09
3.777411701e-12
1.196308641e-09
3.758496776e-12
1.204217154e-09
3.72243403e-12
1.210817839e-09
3.669322784e-12
1.216179785e-09
3.59917856e-12
1.220369205e-09
3.51186592e-12
1.223449592e-09
3.407222259e-12
1.225481727e-09
3.285210358e-12
1.226523649e-09
3.146040608e-12
1.22663073e-09
2.990147031e-12
1.22585573e-09
2.818049351e-12
1.224249075e-09
2.630274098e-12
1.22185891e-09
2.427343117e-12
1.218731248e-09
2.209780116e-12
1.214910024e-09
1.978100494e-12
1.210437138e-09
1.732784802e-12
1.205352736e-09
1.474302005e-12
1.199695006e-09
1.203134269e-12
1.193500444e-09
9.197225459e-13
1.186803789e-09
6.244253336e-13
1.179638372e-09
3.176856491e-13
1.172035681e-09
1.164025823e-09
2.129755512e-14
4.589433452e-11
8.311282126e-14
1.342903958e-10
1.815026449e-13
2.177494467e-10
3.117344438e-13
2.964708739e-10
4.690015522e-13
3.706488463e-10
6.475036788e-13
4.404725366e-10
8.414766268e-13
5.061243271e-10
1.046298897e-12
5.677825985e-10
1.255816747e-12
6.25619357e-10
1.466464172e-12
6.798009702e-10
1.673655496e-12
7.304880313e-10
1.874050832e-12
7.778364418e-10
2.065692275e-12
8.219946212e-10
2.246241858e-12
8.631064852e-10
2.414857525e-12
9.013098383e-10
2.572558056e-12
9.367363307e-10
2.720323808e-12
9.695127157e-10
2.859494317e-12
9.997606147e-10
2.991282061e-12
1.027597051e-09
3.11609463e-12
1.05313506e-09
3.233058324e-12
1.076483948e-09
3.340219845e-12
1.097749459e-09
3.435016219e-12
1.117033442e-09
3.515015576e-12
1.134433745e-09
3.578557761e-12
1.150043965e-09
3.625009056e-12
1.163953399e-09
3.654440376e-12
1.176247345e-09
3.667101984e-12
1.187007574e-09
3.663193815e-12
1.196312549e-09
3.642831364e-12
1.204237517e-09
3.606047662e-12
1.210854623e-09
3.55277508e-12
1.216233057e-09
3.482825528e-12
1.220439155e-09
3.396046084e-12
1.223536371e-09
3.292460883e-12
1.225585312e-09
3.172334562e-12
1.226643775e-09
3.036104695e-12
1.22676696e-09
2.884223704e-12
1.226007611e-09
2.717135171e-12
1.224416164e-09
2.535311885e-12
1.222040733e-09
2.339199322e-12
1.21892736e-09
2.129248283e-12
1.215119975e-09
1.905842557e-12
1.210660544e-09
1.669417007e-12
1.205589162e-09
1.420392456e-12
1.199944031e-09
1.15916375e-12
1.193761672e-09
8.860886017e-13
1.187076864e-09
6.015868548e-13
1.179922874e-09
3.060603935e-13
1.172331207e-09
1.164331884e-09
1.954625079e-14
4.587478827e-11
7.6247003e-14
1.34233695e-10
1.66389043e-13
2.176593046e-10
2.853709434e-13
2.96351892e-10
4.284359992e-13
3.705057812e-10
5.907857919e-13
4.403101869e-10
7.668389133e-13
5.059482739e-10
9.521926709e-13
5.675972447e-10
1.141946403e-12
6.254296033e-10
1.332255206e-12
6.796106614e-10
1.518961045e-12
7.303013254e-10
1.700261116e-12
7.776551417e-10
1.874143071e-12
8.218207392e-10
2.040091991e-12
8.629405363e-10
2.198719736e-12
9.011512105e-10
2.350556108e-12
9.365844944e-10
2.496387211e-12
9.693668846e-10
2.636484469e-12
9.996205174e-10
2.77013479e-12
1.027463401e-09
2.895844355e-12
1.053009351e-09
3.011462577e-12
1.07636833e-09
3.114648684e-12
1.097646272e-09
3.203503189e-12
1.116944588e-09
3.277005349e-12
1.134360243e-09
3.334991147e-12
1.14998598e-09
3.377567323e-12
1.163910823e-09
3.404897942e-12
1.176220014e-09
3.417042763e-12
1.186995429e-09
3.41399893e-12
1.196315593e-09
3.395694859e-12
1.204255821e-09
3.361922828e-12
1.210888395e-09
3.31243652e-12
1.216282544e-09
3.247084171e-12
1.220504507e-09
3.165929542e-12
1.223617526e-09
3.06924634e-12
1.225681995e-09
2.957406759e-12
1.226755615e-09
2.830796378e-12
1.226893571e-09
2.689789882e-12
1.226148617e-09
2.534777499e-12
1.224571176e-09
2.366129045e-12
1.222209382e-09
2.184200664e-12
1.219109288e-09
1.989273735e-12
1.215314902e-09
1.781656602e-12
1.210868161e-09
1.561652984e-12
1.205809165e-09
1.329544076e-12
1.200176139e-09
1.085610749e-12
1.194005606e-09
8.302129652e-13
1.187332262e-09
5.638338995e-13
1.180189253e-09
2.869451234e-13
1.172608096e-09
1.164618829e-09
1.699166734e-14
4.58577966e-11
6.624266038e-14
1.34184444e-10
1.444649411e-13
2.175810823e-10
2.476860897e-13
2.962486708e-10
3.713888396e-13
3.703820785e-10
5.111220727e-13
4.401704536e-10
6.62287638e-13
5.057971084e-10
8.202235485e-13
5.674393088e-10
9.816519244e-13
6.252681749e-10
1.143017496e-12
6.794492958e-10
1.30278341e-12
7.301415595e-10
1.459337953e-12
7.774985872e-10
1.612422706e-12
8.216676545e-10
1.762080326e-12
8.627908787e-10
1.908474047e-12
9.010048168e-10
2.051614469e-12
9.364413539e-10
2.190763421e-12
9.692277356e-10
2.324695427e-12
9.994865854e-10
2.451583876e-12
1.027336513e-09
2.569206916e-12
1.052891728e-09
2.675473861e-12
1.076262063e-09
2.769176359e-12
1.09755257e-09
2.849843745e-12
1.11686392e-09
2.917370563e-12
1.134292716e-09
2.971747925e-12
1.149931602e-09
3.012938881e-12
1.163869632e-09
3.040862078e-12
1.176192091e-09
3.055377949e-12
1.186980913e-09
3.05626946e-12
1.196314701e-09
3.043202958e-12
1.204268887e-09
3.015851719e-12
1.210915746e-09
2.974008462e-12
1.216324387e-09
2.917724848e-12
1.220560791e-09
2.847230835e-12
1.22368802e-09
2.762800272e-12
1.225766426e-09
2.664703756e-12
1.226853711e-09
2.553214796e-12
1.22700506e-09
2.42862463e-12
1.226273208e-09
2.291220497e-12
1.22470858e-09
2.141225565e-12
1.222359377e-09
1.978877664e-12
1.219271636e-09
1.804411677e-12
1.215489368e-09
1.618054649e-12
1.211054518e-09
1.419935413e-12
1.206007285e-09
1.210236956e-12
1.200385838e-09
9.892294156e-13
1.194226613e-09
7.572613148e-13
1.18756423e-09
5.147197707e-13
1.180431794e-09
2.62127827e-13
1.172860688e-09
1.164880957e-09
1.362069164e-14
4.584417591e-11
5.30400069e-14
1.341450247e-10
1.154485996e-13
2.175186737e-10
1.975590735e-13
2.961665603e-10
2.956939824e-13
3.702839436e-10
4.060693935e-13
4.400600782e-10
5.254137855e-13
5.05677764e-10
6.509024919e-13
5.673138201e-10
7.800083819e-13
6.25139069e-10
9.114676055e-13
6.793178366e-10
1.044076421e-12
7.300089507e-10
1.17752403e-12
7.773651396e-10
1.311330383e-12
8.215338481e-10
1.445206689e-12
8.626570024e-10
1.578229027e-12
9.008717945e-10
1.709284742e-12
9.363102982e-10
1.836796385e-12
9.69100224e-10
1.958580543e-12
9.993648012e-10
2.072738767e-12
1.027222354e-09
2.177870461e-12
1.052786596e-09
2.273130402e-12
1.076166803e-09
2.358142499e-12
1.097467558e-09
2.432716233e-12
1.116789347e-09
2.496583388e-12
1.134228849e-09
2.549539705e-12
1.149878646e-09
2.591406389e-12
1.163827765e-09
2.621888751e-12
1.176161609e-09
2.640583024e-12
1.186962219e-09
2.647047297e-12
1.196308237e-09
2.640909699e-12
1.204275025e-09
2.621982915e-12
1.210934673e-09
2.590278536e-12
1.216356091e-09
2.545926476e-12
1.220605143e-09
2.489085585e-12
1.223744861e-09
2.41990317e-12
1.225835608e-09
2.338515651e-12
1.226935099e-09
2.245067695e-12
1.227098508e-09
2.139716932e-12
1.226378558e-09
2.02256974e-12
1.224825728e-09
1.893764468e-12
1.222488182e-09
1.753415793e-12
1.219411985e-09
1.601670056e-12
1.215641114e-09
1.438641034e-12
1.211217547e-09
1.264488127e-12
1.206181437e-09
1.079377767e-12
1.200570948e-09
8.835267974e-13
1.194422464e-09
6.772580456e-13
1.187770499e-09
4.609571041e-13
1.180648095e-09
2.350316924e-13
1.173086613e-09
1.165115989e-09
9.771273075e-15
4.583440463e-11
3.807049727e-14
1.341167255e-10
8.298228554e-14
2.17473762e-10
1.422653625e-13
2.961072773e-10
2.135802581e-13
3.702126287e-10
2.949042877e-13
4.399787542e-10
3.843315018e-13
5.055883368e-10
4.802921717e-13
5.672178594e-10
5.818209827e-13
6.250375402e-10
6.880236394e-13
6.792116339e-10
7.982052984e-13
7.29898769e-10
9.117416505e-13
7.772516032e-10
1.027735166e-12
8.214178546e-10
1.14502574e-12
8.625397118e-10
1.26227888e-12
9.007545413e-10
1.377481291e-12
9.361950958e-10
1.48893057e-12
9.689887747e-10
1.595153243e-12
9.992585786e-10
1.69505233e-12
1.027122455e-09
1.787863273e-12
1.052693785e-09
1.873307907e-12
1.076081358e-09
1.951059993e-12
1.097389806e-09
2.020755167e-12
1.116719652e-09
2.082031311e-12
1.134167573e-09
2.134495296e-12
1.149826182e-09
2.17770377e-12
1.163784557e-09
2.211057716e-12
1.176128255e-09
2.233993963e-12
1.186939283e-09
2.246087593e-12
1.196296143e-09
2.24711919e-12
1.204273993e-09
2.23705363e-12
1.210944739e-09
2.215946397e-12
1.216377198e-09
2.183831886e-12
1.220637257e-09
2.140741506e-12
1.223787951e-09
2.086736042e-12
1.225889614e-09
2.021869037e-12
1.226999966e-09
1.946180287e-12
1.227174196e-09
1.859652483e-12
1.226465086e-09
1.762292499e-12
1.224923088e-09
1.654120838e-12
1.222596354e-09
1.535134743e-12
1.219530971e-09
1.405340063e-12
1.215770909e-09
1.264807246e-12
1.21135808e-09
1.113735364e-12
1.206332509e-09
9.523625855e-13
1.200732321e-09
7.808646489e-13
1.194593962e-09
5.995301603e-13
1.187951833e-09
4.086992338e-13
1.180838926e-09
2.087315596e-13
1.173286581e-09
1.16532472e-09
6.659731152e-15
4.58277449e-11
2.602763414e-14
1.340973576e-10
5.707632183e-14
2.174427133e-10
9.871992104e-14
2.960656337e-10
1.49924322e-13
3.701614243e-10
2.097153239e-13
4.399189632e-10
2.772195284e-13
5.055208326e-10
3.51737271e-13
5.671433417e-10
4.326929429e-13
6.249565845e-10
5.19295286e-13
6.791250316e-10
6.109554554e-13
7.298071089e-10
7.065216682e-13
7.77156037e-10
8.049532744e-13
8.21319423e-10
9.045941025e-13
8.62440071e-10
1.003965619e-12
9.006551698e-10
1.101701954e-12
9.360973595e-10
1.196481412e-12
9.688939953e-10
1.287608696e-12
9.991674513e-10
1.374578188e-12
1.027035486e-09
1.456893491e-12
1.05261147e-09
1.534074453e-12
1.076004177e-09
1.605527454e-12
1.097318353e-09
1.670753535e-12
1.116654425e-09
1.729323914e-12
1.134109002e-09
1.780634143e-12
1.149774872e-09
1.824036406e-12
1.163741154e-09
1.858931471e-12
1.17609336e-09
1.884870185e-12
1.186913344e-09
1.901583985e-12
1.19627943e-09
1.908885256e-12
1.204266692e-09
1.9066712e-12
1.210946953e-09
1.894853051e-12
1.216389017e-09
1.873367801e-12
1.220658743e-09
1.842155288e-12
1.223819163e-09
1.801167282e-12
1.225930602e-09
1.750359538e-12
1.227050774e-09
1.689680754e-12
1.227234875e-09
1.619077302e-12
1.22653569e-09
1.538489786e-12
1.225003675e-09
1.447739612e-12
1.222687104e-09
1.346774595e-12
1.219631936e-09
1.235604604e-12
1.215882079e-09
1.114316343e-12
1.211479368e-09
9.830434608e-13
1.206463782e-09
8.420429439e-13
1.200873322e-09
6.915652655e-13
1.19474444e-09
5.318183327e-13
1.18811158e-09
3.630921716e-13
1.181007652e-09
1.857082085e-13
1.173463965e-09
1.165510428e-09
4.814557067e-15
4.582293035e-11
1.889161932e-14
1.340832805e-10
4.172061499e-14
2.174198843e-10
7.283553878e-14
2.960345187e-10
1.118264584e-13
3.701224333e-10
1.582808418e-13
4.398725088e-10
2.1180389e-13
5.054673095e-10
2.720674602e-13
5.670830781e-10
3.384785373e-13
6.248901734e-10
4.104077579e-13
6.790531023e-10
4.869660288e-13
7.297305506e-10
5.670467497e-13
7.770759563e-10
6.494224878e-13
8.212370473e-10
7.330141334e-13
8.623564793e-10
8.165255503e-13
9.005716584e-10
8.993520234e-13
9.36014533e-10
9.808656151e-13
9.688124817e-10
1.060428516e-12
9.990878884e-10
1.137373112e-12
1.026958541e-09
1.211288389e-12
1.052537555e-09
1.281635914e-12
1.07593383e-09
1.347837256e-12
1.097252151e-09
1.409264e-12
1.116592999e-09
1.465107041e-12
1.134053159e-09
1.514647374e-12
1.149725331e-09
1.557247713e-12
1.163698554e-09
1.592499461e-12
1.176058108e-09
1.620124176e-12
1.186885719e-09
1.639900514e-12
1.196259653e-09
1.651636539e-12
1.204254956e-09
1.655137609e-12
1.210943452e-09
1.650208658e-12
1.216393946e-09
1.636673523e-12
1.220672278e-09
1.614386845e-12
1.22384145e-09
1.583172945e-12
1.225961815e-09
1.542891243e-12
1.227091055e-09
1.493394409e-12
1.227284372e-09
1.434578827e-12
1.226594505e-09
1.36630897e-12
1.225071945e-09
1.288467295e-12
1.222764945e-09
1.200947552e-12
1.219719456e-09
1.103784763e-12
1.215979241e-09
9.970718924e-13
1.211586081e-09
8.809710817e-13
1.206579883e-09
7.556749941e-13
1.200998618e-09
6.21478188e-13
1.194878637e-09
4.785338561e-13
1.188254525e-09
3.271271173e-13
1.181159059e-09
1.675361268e-13
1.173623556e-09
1.165677964e-09
3.907506973e-15
4.581902284e-11
1.537538128e-14
1.340718126e-10
3.410898181e-14
2.174011507e-10
5.98884703e-14
2.960087392e-10
9.250801077e-14
3.700898138e-10
1.317261989e-13
4.398332906e-10
1.773084771e-13
5.054217272e-10
2.288904612e-13
5.670314962e-10
2.858243848e-13
6.248332395e-10
3.475533231e-13
6.789913734e-10
4.130258096e-13
7.296650781e-10
4.81562618e-13
7.770074195e-10
5.521237303e-13
8.211664862e-10
6.241391936e-13
8.622844639e-10
6.970354002e-13
9.004987622e-10
7.700275025e-13
9.359415409e-10
8.426781006e-13
9.687398311e-10
9.144827748e-13
9.990160837e-10
9.848663247e-13
1.026888158e-09
1.053091001e-12
1.05246933e-09
1.118528809e-12
1.075868392e-09
1.180586018e-12
1.097190094e-09
1.238516077e-12
1.116535069e-09
1.291588979e-12
1.134000086e-09
1.339146262e-12
1.149677774e-09
1.380657912e-12
1.163657043e-09
1.415783519e-12
1.176022982e-09
1.444228785e-12
1.186857274e-09
1.465718319e-12
1.196238164e-09
1.4800402e-12
1.204240634e-09
1.486977873e-12
1.210936514e-09
1.486309415e-12
1.216394614e-09
1.477785077e-12
1.220680802e-09
1.461111864e-12
1.223858123e-09
1.436086847e-12
1.22598684e-09
1.402503624e-12
1.227124639e-09
1.360145627e-12
1.22732673e-09
1.308795976e-12
1.226645855e-09
1.248323936e-12
1.225132417e-09
1.178745526e-12
1.222834524e-09
1.099965799e-12
1.219798236e-09
1.012034023e-12
1.216067173e-09
9.150777338e-13
1.211683037e-09
8.092583361e-13
1.206685702e-09
6.947717884e-13
1.201113104e-09
5.718387093e-13
1.19500157e-09
4.406783463e-13
1.188385685e-09
3.015321921e-13
1.181298205e-09
1.545879003e-13
1.1737705e-09
1.165832552e-09
3.589633075e-15
4.581543321e-11
1.413005738e-14
1.340612722e-10
3.135696534e-14
2.173839238e-10
5.506627907e-14
2.959850299e-10
8.500329168e-14
3.700598768e-10
1.209146312e-13
4.397973793e-10
1.625272874e-13
5.053801146e-10
2.092877374e-13
5.669847357e-10
2.607065454e-13
6.247818207e-10
3.161634865e-13
6.789359165e-10
3.750483387e-13
7.296061933e-10
4.367370334e-13
7.769457308e-10
5.008327918e-13
8.211023904e-10
5.665433903e-13
8.622187533e-10
6.335624536e-13
9.004317431e-10
7.013757373e-13
9.358737276e-10
7.692450236e-13
9.686719618e-10
8.366520932e-13
9.989486766e-10
9.031134206e-13
1.026821696e-09
9.679672785e-13
1.052404476e-09
1.03034844e-12
1.075806011e-09
1.089476337e-12
1.097130966e-09
1.144633493e-12
1.116479912e-09
1.195326424e-12
1.133949394e-09
1.241094203e-12
1.149632006e-09
1.281554722e-12
1.163616582e-09
1.316267186e-12
1.17598827e-09
1.344885624e-12
1.186828656e-09
1.367103926e-12
1.196215946e-09
1.382627161e-12
1.204225111e-09
1.391178132e-12
1.210927963e-09
1.392508752e-12
1.216393283e-09
1.38636727e-12
1.220686944e-09
1.372468104e-12
1.223872022e-09
1.350510333e-12
1.226008798e-09
1.320216022e-12
1.227154933e-09
1.281348181e-12
1.227365598e-09
1.233742744e-12
1.22669346e-09
1.17731279e-12
1.225188847e-09
1.112054963e-12
1.222899782e-09
1.038014175e-12
1.219872276e-09
9.552510771e-13
1.216149936e-09
8.639092293e-13
1.211774379e-09
7.641572476e-13
1.206785454e-09
6.56188247e-13
1.201221073e-09
5.40211928e-13
1.195117546e-09
4.164559317e-13
1.188509441e-09
2.850697041e-13
1.181429591e-09
1.461982277e-13
1.173909372e-09
1.165978751e-09
3.578847573e-15
4.581185436e-11
1.407376693e-14
1.340507773e-10
3.115029123e-14
2.173668472e-10
5.448640534e-14
2.959616938e-10
8.374783827e-14
3.700306154e-10
1.186515005e-13
4.397624756e-10
1.587496746e-13
5.053400164e-10
2.03533098e-13
5.669399523e-10
2.527004451e-13
6.247326533e-10
3.055538526e-13
6.788830631e-10
3.618883129e-13
7.295498588e-10
4.209999429e-13
7.768866192e-10
4.825634103e-13
8.210408269e-10
5.460722205e-13
8.621552445e-10
6.108588798e-13
9.003669565e-10
6.765847975e-13
9.358080017e-10
7.426799446e-13
9.686058666e-10
8.083786525e-13
9.988829779e-10
8.729865799e-13
1.026757088e-09
9.359011976e-13
1.052341561e-09
9.963770603e-13
1.075745535e-09
1.053624759e-12
1.097073719e-09
1.10706075e-12
1.116426476e-09
1.1562225e-12
1.133900232e-09
1.200728687e-12
1.1495875e-09
1.24024388e-12
1.163577067e-09
1.274373069e-12
1.175954141e-09
1.302692451e-12
1.186800336e-09
1.324853348e-12
1.196193785e-09
1.340530511e-12
1.204209434e-09
1.349383953e-12
1.21091911e-09
1.351107232e-12
1.21639156e-09
1.345429854e-12
1.220692621e-09
1.3321372e-12
1.223885315e-09
1.310825438e-12
1.22603011e-09
1.281235072e-12
1.227184523e-09
1.243190135e-12
1.227403643e-09
1.196588214e-12
1.226740062e-09
1.14138742e-12
1.225244048e-09
1.0776265e-12
1.222963543e-09
1.005402706e-12
1.2199445e-09
9.248207812e-13
1.216230518e-09
8.360322144e-13
1.211863167e-09
7.392283561e-13
1.206882258e-09
6.346274763e-13
1.201325674e-09
5.223720888e-13
1.195229801e-09
4.026416321e-13
1.188629171e-09
2.755819182e-13
1.181556651e-09
1.413454084e-13
1.174043608e-09
1.166120096e-09
3.691558138e-15
4.58081628e-11
1.449082983e-14
1.34039978e-10
3.19908921e-14
2.173493472e-10
5.57867723e-14
2.959378979e-10
8.553497506e-14
3.700008672e-10
1.208211245e-13
4.397271895e-10
1.611274239e-13
5.052997101e-10
2.061712098e-13
5.668949085e-10
2.554156045e-13
6.24683409e-10
3.084829663e-13
6.788299957e-10
3.648763221e-13
7.294934654e-10
4.242178312e-13
7.768272777e-10
4.858493978e-13
8.209791954e-10
5.495132904e-13
8.620915806e-10
6.145239366e-13
9.003019458e-10
6.802441894e-13
9.357422814e-10
7.462158814e-13
9.685398949e-10
8.116666568e-13
9.988175272e-10
8.75763025e-13
1.026692992e-09
9.377764823e-13
1.052279548e-09
9.971893729e-13
1.075686122e-09
1.053463641e-12
1.097017444e-09
1.106010404e-12
1.116373929e-09
1.154378998e-12
1.133851863e-09
1.198135425e-12
1.149543744e-09
1.236865027e-12
1.163538337e-09
1.270279471e-12
1.175920726e-09
1.29798994e-12
1.186772626e-09
1.319552376e-12
1.196172222e-09
1.334598031e-12
1.204194388e-09
1.342794758e-12
1.210910913e-09
1.343821571e-12
1.216390533e-09
1.337365153e-12
1.220699077e-09
1.323126693e-12
1.223899554e-09
1.300848563e-12
1.226052388e-09
1.270305428e-12
1.227215066e-09
1.231386148e-12
1.227442562e-09
1.184048338e-12
1.2267874e-09
1.12832285e-12
1.225299773e-09
1.064282353e-12
1.223027583e-09
9.920297025e-13
1.220016753e-09
9.117176675e-13
1.21631083e-09
8.235407418e-13
1.211951344e-09
7.27708915e-13
1.20697809e-09
6.244035708e-13
1.201428979e-09
5.136573433e-13
1.195340548e-09
3.957107934e-13
1.188747118e-09
2.707138084e-13
1.181681648e-09
1.388023938e-13
1.17417552e-09
1.166258898e-09
3.85116533e-15
4.580431163e-11
1.510771429e-14
1.340287215e-10
3.333623626e-14
2.173311187e-10
5.811412996e-14
2.9591312e-10
8.901971132e-14
3.699699616e-10
1.255214762e-13
4.396906877e-10
1.672325566e-13
5.05257999e-10
2.137676378e-13
5.668483734e-10
2.645214513e-13
6.246326551e-10
3.192317509e-13
6.787752854e-10
3.772105166e-13
7.294354867e-10
4.381730915e-13
7.767663151e-10
5.014498273e-13
8.209159186e-10
5.665207225e-13
8.620265097e-10
6.328935218e-13
9.00235573e-10
6.997362406e-13
9.356754387e-10
7.663543775e-13
9.684732768e-10
8.32162683e-13
9.987517189e-10
8.963501121e-13
1.026628805e-09
9.582696652e-13
1.052217628e-09
1.01738076e-12
1.075627011e-09
1.073290992e-12
1.096961534e-09
1.125490574e-12
1.116321729e-09
1.173430416e-12
1.133803923e-09
1.21668189e-12
1.149500492e-09
1.254829277e-12
1.16350019e-09
1.287477879e-12
1.175888078e-09
1.314312732e-12
1.186745791e-09
1.334879204e-12
1.196151656e-09
1.348793834e-12
1.204180474e-09
1.35571636e-12
1.21090399e-09
1.355298406e-12
1.216390951e-09
1.34720121e-12
1.220707175e-09
1.3311667e-12
1.223915588e-09
1.307034665e-12
1.22607652e-09
1.274645847e-12
1.227247455e-09
1.233959931e-12
1.227483248e-09
1.185002634e-12
1.226836357e-09
1.127843739e-12
1.225356932e-09
1.062599242e-12
1.223092828e-09
9.893465204e-13
1.220090006e-09
9.083328424e-13
1.216391844e-09
8.197626656e-13
1.212039915e-09
7.237996309e-13
1.207074053e-09
6.205160789e-13
1.201532263e-09
5.100616682e-13
1.195451002e-09
3.926493072e-13
1.18886453e-09
2.684250944e-13
1.181805872e-09
1.375097883e-13
1.174306435e-09
1.166396408e-09
4.045669437e-15
4.580026596e-11
1.587445883e-14
1.340168927e-10
3.502326348e-14
2.173119699e-10
6.103069411e-14
2.958871126e-10
9.338370546e-14
3.699376086e-10
1.315895962e-13
4.396524818e-10
1.752514505e-13
5.052143372e-10
2.238027764e-13
5.667998221e-10
2.767911835e-13
6.245796667e-10
3.337190423e-13
6.787183575e-10
3.940388242e-13
7.293751669e-10
4.571934196e-13
7.767031605e-10
5.226556854e-13
8.208504564e-10
5.896548645e-13
8.619595105e-10
6.576397397e-13
9.001675882e-10
7.258133684e-13
9.356072651e-10
7.934042669e-13
9.684056859e-10
8.598134171e-13
9.986853097e-10
9.244743568e-13
1.026564144e-09
9.867338185e-13
1.052155369e-09
1.046060376e-12
1.075567684e-09
1.101951934e-12
1.096905643e-09
1.154014965e-12
1.116269666e-09
1.201687904e-12
1.13375625e-09
1.24451346e-12
1.149457667e-09
1.282063277e-12
1.16346264e-09
1.313907241e-12
1.175856234e-09
1.339665773e-12
1.186720032e-09
1.358988577e-12
1.196132333e-09
1.371460123e-12
1.204168002e-09
1.376699696e-12
1.210898751e-09
1.374368891e-12
1.216393282e-09
1.364206746e-12
1.220717337e-09
1.346022402e-12
1.223933772e-09
1.319669336e-12
1.226102873e-09
1.285107405e-12
1.227282017e-09
1.242357193e-12
1.227525998e-09
1.191485566e-12
1.226887229e-09
1.132602815e-12
1.225415815e-09
1.065784572e-12
1.223159646e-09
9.912419707e-13
1.220164548e-09
9.09207567e-13
1.216473878e-09
8.198285284e-13
1.212129294e-09
7.232381604e-13
1.207170644e-09
6.194646529e-13
1.201636036e-09
5.087808184e-13
1.195561686e-09