/*--------------------------------*- C++ -*----------------------------------*\
  =========                 |
  \\      /  F ield         | OpenFOAM: The Open Source CFD Toolbox
   \\    /   O peration     | Website:  https://openfoam.org
    \\  /    A nd           | Version:  7
     \\/     M anipulation  |
\*---------------------------------------------------------------------------*/
FoamFile
{
    version     2.0;
    format      ascii;
    class       volVectorField;
    location    "0.0003";
    object      U;
}
// * * * * * * * * * * * * * * * * * * * * * * * * * * * * * * * * * * * * * //

dimensions      [0 1 -1 0 0 0 0];

internalField   nonuniform List<vector> 
1166
(
(-3.143779448e-08 3.908758308e-20 -0.002071077921)
(-8.253156991e-08 4.84264467e-20 -0.002071074226)
(-1.31585158e-07 4.288227929e-20 -0.002071066421)
(-1.829339012e-07 -6.676282125e-20 -0.00207105492)
(-2.354075618e-07 -8.220888912e-20 -0.002071039883)
(-2.888921148e-07 -1.064288688e-19 -0.002071021488)
(-3.440122622e-07 -1.372859564e-19 -0.002071001247)
(-4.029496493e-07 -1.744705523e-19 -0.002070981953)
(-4.66617133e-07 -1.401868405e-19 -0.002070966553)
(-5.197418944e-07 -1.199660452e-19 -0.002070958039)
(-5.388168839e-07 -8.092156626e-20 -0.00207095945)
(-5.152192703e-07 -5.151529408e-20 -0.002070974439)
(-4.500734963e-07 -3.75638643e-21 -0.002071006785)
(-3.432492895e-07 3.801688261e-20 -0.002071054542)
(-2.01234986e-07 9.658905135e-20 -0.00207111073)
(-5.591919603e-08 1.498697407e-19 -0.002071165912)
(6.781618784e-08 1.803751249e-19 -0.002071211287)
(1.706279217e-07 2.094138351e-19 -0.00207124175)
(2.552972801e-07 2.206919887e-19 -0.002071258063)
(3.233436482e-07 2.168504948e-19 -0.002071262387)
(3.760397394e-07 2.146097818e-19 -0.002071256572)
(4.148750214e-07 2.135005e-19 -0.002071242052)
(4.416889213e-07 2.132227916e-19 -0.0020712202)
(4.594011791e-07 2.145158277e-19 -0.002071193456)
(4.705480548e-07 2.162108016e-19 -0.002071165564)
(4.75705961e-07 2.181460523e-19 -0.002071140143)
(4.763005016e-07 2.200917629e-19 -0.002071120372)
(4.74868333e-07 2.22013767e-19 -0.002071107802)
(4.725986038e-07 2.239532089e-19 -0.00207110218)
(4.698472062e-07 2.259587698e-19 -0.002071102859)
(4.665718521e-07 2.27894985e-19 -0.002071109221)
(4.62319165e-07 2.296614312e-19 -0.002071120643)
(4.56369932e-07 2.311422124e-19 -0.002071136465)
(4.480533387e-07 2.322877925e-19 -0.002071156011)
(-3.569122938e-08 4.72242479e-20 -0.002073242954)
(-9.352623444e-08 7.054476893e-20 -0.00207324258)
(-1.494698346e-07 7.730378901e-20 -0.002073242253)
(-2.103305175e-07 7.969017193e-20 -0.002073243097)
(-2.755134543e-07 7.811208534e-20 -0.002073246576)
(-3.356894944e-07 7.700212237e-20 -0.00207325451)
(-3.746234754e-07 7.704917541e-20 -0.002073268941)
(-3.842800516e-07 7.819449975e-20 -0.00207329232)
(-3.640455002e-07 7.866476949e-20 -0.002073327913)
(-3.128893123e-07 7.976138618e-20 -0.002073379197)
(-2.27741138e-07 7.915272924e-20 -0.002073444903)
(-1.071111548e-07 7.77240691e-20 -0.002073519126)
(2.986172587e-08 7.353139004e-20 -0.002073593895)
(1.559335584e-07 9.293847205e-20 -0.002073660751)
(2.630045628e-07 1.077574169e-19 -0.002073713079)
(3.530658859e-07 1.194619261e-19 -0.002073748003)
(4.276368629e-07 1.284688886e-19 -0.002073767638)
(4.875654979e-07 1.353626042e-19 -0.002073774496)
(5.337560638e-07 1.408441456e-19 -0.002073770572)
(5.6737566e-07 1.453844846e-19 -0.002073757403)
(5.89855766e-07 1.48620371e-19 -0.002073736403)
(6.035637791e-07 1.505755314e-19 -0.002073709905)
(6.110479196e-07 1.511845829e-19 -0.00207368168)
(6.129060302e-07 1.63127537e-19 -0.002073655557)
(6.100263736e-07 1.738368037e-19 -0.002073635)
(6.048459033e-07 1.834909697e-19 -0.002073622146)
(5.988229254e-07 1.921534978e-19 -0.002073617026)
(5.924375501e-07 1.996221979e-19 -0.002073618973)
(5.857685464e-07 2.05319435e-19 -0.00207362733)
(5.784888084e-07 2.166336689e-19 -0.00207364146)
(5.699445466e-07 2.265832055e-19 -0.002073660692)
(5.594179514e-07 2.359421509e-19 -0.002073684323)
(5.464099289e-07 2.411757278e-19 -0.002073711661)
(5.307618237e-07 2.461820132e-19 -0.002073742058)
(5.125803196e-07 2.510182809e-19 -0.00207377491)
(4.920670463e-07 2.556461765e-19 -0.00207380964)
(4.694031301e-07 2.604028201e-19 -0.002073845678)
(4.44723619e-07 2.609286049e-19 -0.002073882456)
(4.181257712e-07 2.608407279e-19 -0.002073919407)
(3.896743932e-07 2.639273929e-19 -0.00207395597)
(3.594126521e-07 2.667971691e-19 -0.002073991593)
(3.273907916e-07 2.727437224e-19 -0.002074025739)
(2.936919141e-07 2.786856742e-19 -0.002074057891)
(2.58436398e-07 2.844156877e-19 -0.002074087555)
(2.217629726e-07 2.902802815e-19 -0.002074114258)
(1.838029439e-07 2.931361528e-19 -0.00207413755)
(1.44662105e-07 2.994993671e-19 -0.002074157001)
(1.044532869e-07 3.057696077e-19 -0.002074172198)
(6.348826523e-08 3.098312367e-19 -0.002074182745)
(2.243476739e-08 3.119809934e-19 -0.00207418826)
(-2.85653995e-08 7.15231171e-20 -0.002075563861)
(-7.270208041e-08 1.408884074e-19 -0.002075572973)
(-1.066461882e-07 2.003211007e-19 -0.002075591486)
(-1.300254885e-07 2.668807212e-19 -0.002075620506)
(-1.374312159e-07 2.491504655e-19 -0.002075661845)
(-1.250023561e-07 2.536617648e-19 -0.002075717592)
(-8.900705195e-08 2.726538312e-19 -0.002075786828)
(-2.477962879e-08 3.025003937e-19 -0.002075865504)
(7.062888753e-08 2.955517536e-19 -0.002075948929)
(1.837384911e-07 3.02702281e-19 -0.002076031447)
(2.917730635e-07 2.861750165e-19 -0.002076106661)
(3.863346561e-07 2.805861829e-19 -0.002076168752)
(4.689984568e-07 2.552039121e-19 -0.002076213868)
(5.404949264e-07 2.386260769e-19 -0.002076242474)
(6.005759244e-07 2.055249117e-19 -0.002076256978)
(6.491506185e-07 1.783289966e-19 -0.002076259587)
(6.865383899e-07 1.549904579e-19 -0.002076252079)
(7.133931605e-07 1.340764857e-19 -0.002076235847)
(7.305956266e-07 1.3122665e-19 -0.002076212168)
(7.399123039e-07 1.439240632e-19 -0.002076183194)
(7.436502901e-07 1.557245515e-19 -0.002076152535)
(7.423467424e-07 1.669138073e-19 -0.002076123989)
(7.36425271e-07 1.777369065e-19 -0.002076101089)
(7.280343111e-07 1.882649487e-19 -0.002076086396)
(7.188147472e-07 1.98389952e-19 -0.002076080271)
(7.093700507e-07 2.080954402e-19 -0.002076082048)
(6.998842271e-07 2.173308585e-19 -0.002076091014)
(6.90150522e-07 2.260950416e-19 -0.002076106505)
(6.795921107e-07 2.346647121e-19 -0.00207612784)
(6.674575997e-07 2.421926414e-19 -0.002076154298)
(6.531133237e-07 2.496874225e-19 -0.002076185159)
(6.362531811e-07 2.570038599e-19 -0.002076219731)
(6.169042865e-07 2.644793795e-19 -0.002076257375)
(5.95256639e-07 2.71863359e-19 -0.002076297484)
(5.715007e-07 2.791967558e-19 -0.002076339468)
(5.457783344e-07 2.865175209e-19 -0.002076382741)
(5.181899536e-07 2.981014295e-19 -0.002076426714)
(4.888043492e-07 3.064953913e-19 -0.002076470804)
(4.576625642e-07 3.087178787e-19 -0.002076514437)
(4.247971002e-07 3.115536289e-19 -0.002076557049)
(3.902626561e-07 3.147252963e-19 -0.002076598093)
(3.541517537e-07 3.181086732e-19 -0.002076637046)
(3.165866428e-07 3.216214985e-19 -0.002076673408)
(2.776972911e-07 3.221075815e-19 -0.002076706702)
(2.376067705e-07 3.225202748e-19 -0.002076736471)
(1.964253941e-07 3.22794732e-19 -0.002076762282)
(1.542389186e-07 3.253433913e-19 -0.002076783718)
(1.111402495e-07 3.253376346e-19 -0.002076800382)
(6.742025029e-08 3.251152873e-19 -0.002076811887)
(2.372516737e-08 3.249912795e-19 -0.002076817865)
(1.318927921e-08 1.979506464e-20 -0.002078353213)
(3.641828768e-08 -7.96138615e-21 -0.002078367408)
(6.732706789e-08 -5.996285158e-20 -0.002078394468)
(1.141489685e-07 -4.14149182e-21 -0.002078432632)
(1.811015961e-07 1.542131171e-20 -0.002078479433)
(2.624392728e-07 8.800517805e-20 -0.002078531467)
(3.447287102e-07 1.345111156e-19 -0.002078584615)
(4.220142594e-07 1.641041789e-19 -0.00207863441)
(4.952002211e-07 1.32781948e-19 -0.002078676361)
(5.643896486e-07 1.388209229e-19 -0.002078706665)
(6.282822249e-07 1.732344273e-19 -0.002078724654)
(6.854365677e-07 1.977720447e-19 -0.002078731723)
(7.346901166e-07 2.153449143e-19 -0.002078729219)
(7.751781132e-07 2.041103296e-19 -0.002078718234)
(8.066865924e-07 1.915104567e-19 -0.002078699762)
(8.294942459e-07 1.77604335e-19 -0.002078674653)
(8.440738713e-07 1.618170895e-19 -0.002078643807)
(8.5164338e-07 1.437435472e-19 -0.002078609071)
(8.540703552e-07 1.410421475e-19 -0.002078573666)
(8.517919111e-07 1.529249042e-19 -0.002078541009)
(8.449640159e-07 1.780042595e-19 -0.002078514395)
(8.35435295e-07 2.001752762e-19 -0.002078496554)
(8.248873787e-07 2.192518315e-19 -0.002078488147)
(8.140029937e-07 2.35465156e-19 -0.002078488536)
(8.03087321e-07 2.493371553e-19 -0.002078496947)
(7.920887937e-07 2.614624556e-19 -0.002078512677)
(7.805604298e-07 2.726342558e-19 -0.002078535024)
(7.67798019e-07 2.840486231e-19 -0.002078563254)
(7.531092819e-07 2.884714768e-19 -0.002078596615)
(7.360579501e-07 2.845232354e-19 -0.00207863438)
(7.16540837e-07 2.806245732e-19 -0.002078675872)
(6.946853729e-07 2.800531957e-19 -0.002078720461)
(6.706838133e-07 2.919971817e-19 -0.002078767541)
(6.446989408e-07 3.030090615e-19 -0.002078816508)
(6.168485879e-07 3.131087292e-19 -0.00207886676)
(5.87214403e-07 3.224178185e-19 -0.002078917699)
(5.558446444e-07 3.310613314e-19 -0.002078968729)
(5.227648036e-07 3.390353016e-19 -0.002079019266)
(4.880078059e-07 3.396203295e-19 -0.002079068741)
(4.516410324e-07 3.395213542e-19 -0.002079116602)
(4.13770715e-07 3.419988661e-19 -0.002079162324)
(3.745217998e-07 3.440360884e-19 -0.002079205405)
(3.340162185e-07 3.456708268e-19 -0.002079245366)
(2.923669977e-07 3.468547324e-19 -0.00207928175)
(2.496797463e-07 3.475655879e-19 -0.002079314121)
(2.060482951e-07 3.477527168e-19 -0.002079342062)
(1.615402607e-07 3.445361455e-19 -0.002079365174)
(1.162307513e-07 3.434272844e-19 -0.002079383073)
(7.040500456e-08 3.393087999e-19 -0.002079395386)
(2.469982796e-08 3.371432597e-19 -0.002079401751)
(5.064368464e-08 8.007183794e-20 -0.002081110332)
(1.324217752e-07 1.630616792e-19 -0.002081116035)
(2.101527378e-07 2.330410052e-19 -0.002081125646)
(2.905402797e-07 2.998803558e-19 -0.002081137332)
(3.705839766e-07 3.695233912e-19 -0.002081148409)
(4.490075203e-07 3.581938695e-19 -0.002081155827)
(5.246701948e-07 3.619495144e-19 -0.002081158052)
(5.962911278e-07 3.77541499e-19 -0.002081154998)
(6.62625439e-07 3.499017511e-19 -0.002081146617)
(7.223703171e-07 3.324970926e-19 -0.00208113286)
(7.744897995e-07 3.205099297e-19 -0.002081113801)
(8.18392975e-07 3.127708746e-19 -0.00208108969)
(8.536343954e-07 3.078326523e-19 -0.002081060767)
(8.803605845e-07 2.760709062e-19 -0.002081027334)
(8.992437669e-07 2.738306894e-19 -0.002080990042)
(9.113101855e-07 2.94581378e-19 -0.002080950575)
(9.179557833e-07 3.130957488e-19 -0.002080911751)
(9.195136765e-07 3.300197777e-19 -0.002080876465)
(9.161702467e-07 3.453403525e-19 -0.00208084766)
(9.095492469e-07 3.5943404e-19 -0.002080828024)
(9.01256529e-07 3.726399409e-19 -0.002080818409)
(8.920957959e-07 3.854645075e-19 -0.002080818247)
(8.825163886e-07 3.983132463e-19 -0.002080826743)
(8.726425264e-07 3.983608919e-19 -0.002080843179)
(8.622055545e-07 3.979102801e-19 -0.002080866858)
(8.506239927e-07 3.963303871e-19 -0.002080897049)
(8.372195435e-07 4.039956486e-19 -0.002080932993)
(8.214744219e-07 4.082229429e-19 -0.002080973943)
(8.031809611e-07 4.110374589e-19 -0.002081019196)
(7.824135956e-07 4.12738497e-19 -0.002081068099)
(7.593730981e-07 4.089608767e-19 -0.002081120038)
(7.342508811e-07 4.03695597e-19 -0.002081174406)
(7.071901e-07 4.020226151e-19 -0.002081230602)
(6.782926323e-07 3.990531005e-19 -0.002081288021)
(6.476267656e-07 3.991947624e-19 -0.002081346062)
(6.152300604e-07 3.983890871e-19 -0.002081404132)
(5.811285815e-07 4.003024306e-19 -0.002081461646)
(5.453691686e-07 3.970934235e-19 -0.002081518037)
(5.08037082e-07 3.973572371e-19 -0.002081572762)
(4.692488467e-07 3.95548216e-19 -0.002081625299)
(4.291290399e-07 3.976250744e-19 -0.002081675152)
(3.877939956e-07 3.978706539e-19 -0.002081721848)
(3.453512763e-07 4.025549627e-19 -0.002081764934)
(3.01899148e-07 4.060037242e-19 -0.00208180398)
(2.575256548e-07 4.084991736e-19 -0.002081838573)
(2.123053697e-07 4.102382622e-19 -0.00208186832)
(1.66291177e-07 4.113472842e-19 -0.002081892842)
(1.195485629e-07 4.11954961e-19 -0.002081911773)
(7.235473595e-08 4.124999346e-19 -0.002081924754)
(2.533347288e-08 4.127115544e-19 -0.002081931433)
(6.178134707e-08 9.850880592e-20 -0.002083458065)
(1.611674071e-07 2.165702e-19 -0.002083456211)
(2.538128926e-07 3.274094454e-19 -0.002083451445)
(3.468638907e-07 3.374969867e-19 -0.002083443772)
(4.36058204e-07 3.740957897e-19 -0.002083432947)
(5.19651092e-07 3.654979061e-19 -0.002083418711)
(5.966103599e-07 3.76624729e-19 -0.00208340081)
(6.661025611e-07 4.03835246e-19 -0.002083379097)
(7.27513471e-07 4.341137346e-19 -0.002083353578)
(7.804610714e-07 4.3878168e-19 -0.002083324276)
(8.249839399e-07 4.229641781e-19 -0.002083291324)
(8.610930667e-07 4.197832961e-19 -0.00208325495)
(8.890410087e-07 4.257787719e-19 -0.002083215922)
(9.100217508e-07 4.400557554e-19 -0.002083176125)
(9.251251243e-07 4.599303695e-19 -0.002083138079)
(9.344088e-07 4.847187776e-19 -0.002083104204)
(9.381701198e-07 5.155395626e-19 -0.002083077147)
(9.379130908e-07 5.533714776e-19 -0.002083059401)
(9.351122967e-07 5.759268462e-19 -0.002083051821)
(9.306386426e-07 5.81110053e-19 -0.002083053908)
(9.250944949e-07 5.696185865e-19 -0.002083064901)
(9.187952544e-07 5.625366096e-19 -0.002083084106)
(9.116697835e-07 5.604228337e-19 -0.002083110857)
(9.032857399e-07 5.624629549e-19 -0.002083144458)
(8.930267376e-07 5.687325945e-19 -0.002083184177)
(8.803483605e-07 5.658099941e-19 -0.002083229275)
(8.649685562e-07 5.664967653e-19 -0.002083279049)
(8.46907811e-07 5.588110176e-19 -0.002083332848)
(8.263659389e-07 5.637862789e-19 -0.002083390064)
(8.035657057e-07 5.650873888e-19 -0.00208345011)
(7.786862838e-07 5.687502431e-19 -0.002083512398)
(7.518604153e-07 5.698078093e-19 -0.002083576339)
(7.231837386e-07 5.612432379e-19 -0.002083641345)
(6.927151094e-07 5.50554366e-19 -0.002083706828)
(6.604862438e-07 5.411748254e-19 -0.002083772207)
(6.265320841e-07 5.327275894e-19 -0.002083836914)
(5.909193621e-07 5.261671254e-19 -0.002083900396)
(5.537531149e-07 5.206442578e-19 -0.002083962127)
(5.151578546e-07 5.238713995e-19 -0.002084021601)
(4.752552179e-07 5.282044101e-19 -0.002084078336)
(4.341560514e-07 5.292057241e-19 -0.00208413187)
(3.919622539e-07 5.282188099e-19 -0.002084181764)
(3.487675988e-07 5.267396013e-19 -0.002084227598)
(3.04656577e-07 5.232722144e-19 -0.00208426897)
(2.597059307e-07 5.202710244e-19 -0.002084305495)
(2.139838065e-07 5.17759762e-19 -0.002084336805)
(1.675343615e-07 5.157300182e-19 -0.002084362542)
(1.204041761e-07 5.114822571e-19 -0.002084382356)
(7.285059653e-08 5.104455202e-19 -0.002084395902)
(2.548325464e-08 5.098523534e-19 -0.002084402838)
(6.299715653e-08 1.23165833e-20 -0.002085526297)
(1.640785953e-07 -2.925576017e-20 -0.002085522296)
(2.572685128e-07 -9.654840729e-20 -0.002085513635)
(3.49526545e-07 -4.49475199e-20 -0.002085500676)
(4.3662929e-07 -3.094950549e-20 -0.002085483578)
(5.170017208e-07 3.074087645e-20 -0.002085462512)
(5.897324335e-07 6.665670043e-20 -0.002085437671)
(6.546134786e-07 8.436953815e-20 -0.002085409211)
(7.11338424e-07 1.343844715e-19 -0.002085377417)
(7.598314511e-07 1.686729063e-19 -0.002085342868)
(8.004004272e-07 2.30442141e-19 -0.002085306851)
(8.335889072e-07 2.817270265e-19 -0.002085271314)
(8.60091669e-07 3.257744557e-19 -0.00208523844)
(8.800400512e-07 3.93222096e-19 -0.002085210328)
(8.938418949e-07 4.286263448e-19 -0.002085189381)
(9.028308465e-07 4.34310266e-19 -0.002085177712)
(9.083270828e-07 4.374036414e-19 -0.002085175948)
(9.112479908e-07 4.5730871e-19 -0.00208518362)
(9.123240201e-07 4.743574876e-19 -0.002085200032)
(9.120355585e-07 4.885105163e-19 -0.002085224549)
(9.104753677e-07 5.00290188e-19 -0.002085256563)
(9.073662483e-07 4.953563975e-19 -0.002085295433)
(9.022198639e-07 4.892669956e-19 -0.002085340475)
(8.945426001e-07 4.986886837e-19 -0.002085390987)
(8.840219605e-07 5.083200824e-19 -0.00208544629)
(8.706115963e-07 5.183832597e-19 -0.002085505753)
(8.544785536e-07 5.166283894e-19 -0.002085568795)
(8.358672017e-07 5.18846522e-19 -0.002085634866)
(8.14996801e-07 5.227068952e-19 -0.002085703414)
(7.920360702e-07 5.223452071e-19 -0.002085773888)
(7.671103165e-07 5.228510078e-19 -0.002085845729)
(7.403072694e-07 5.28122715e-19 -0.002085918376)
(7.116784337e-07 5.280897573e-19 -0.00208599127)
(6.812571654e-07 5.329298952e-19 -0.002086063858)
(6.490922675e-07 5.332726102e-19 -0.0020861356)
(6.152689637e-07 5.339791489e-19 -0.002086205975)
(5.799044823e-07 5.348025975e-19 -0.002086274483)
(5.431227965e-07 5.405710119e-19 -0.002086340646)
(5.050367086e-07 5.433748745e-19 -0.002086404006)
(4.657500681e-07 5.476517431e-19 -0.002086464125)
(4.253588792e-07 5.472446601e-19 -0.002086520585)
(3.839495829e-07 5.446801885e-19 -0.002086572985)
(3.415973727e-07 5.410588769e-19 -0.002086620943)
(2.983718083e-07 5.360702085e-19 -0.002086664091)
(2.543419807e-07 5.317765913e-19 -0.002086702075)
(2.095653328e-07 5.279320918e-19 -0.002086734551)
(1.640736795e-07 5.243883004e-19 -0.002086761181)
(1.179139209e-07 5.214587904e-19 -0.002086781635)
(7.134313273e-08 5.187073172e-19 -0.002086795579)
(2.495811836e-08 5.160901763e-19 -0.002086802683)
(5.880354961e-08 6.315780591e-20 -0.002087409182)
(1.531398492e-07 1.153277035e-19 -0.002087404482)
(2.399810925e-07 1.56840542e-19 -0.002087394707)
(3.256374363e-07 1.920173244e-19 -0.002087380343)
(4.060327293e-07 2.343856589e-19 -0.002087361756)
(4.799727363e-07 1.976001991e-19 -0.002087339382)
(5.467207153e-07 1.743402653e-19 -0.002087313977)
(6.059666899e-07 1.566252743e-19 -0.00208728672)
(6.577627424e-07 1.868627321e-19 -0.002087259158)
(7.022421164e-07 2.119632927e-19 -0.002087233086)
(7.394025319e-07 2.315801084e-19 -0.002087210251)
(7.694874341e-07 2.790728372e-19 -0.002087192662)
(7.93274207e-07 3.230078265e-19 -0.002087182493)
(8.117364098e-07 3.651832424e-19 -0.002087181211)
(8.259784031e-07 4.067605955e-19 -0.002087189062)
(8.369896832e-07 4.505881437e-19 -0.002087205603)
(8.455561022e-07 4.583056589e-19 -0.002087230258)
(8.522380408e-07 4.708699859e-19 -0.002087262495)
(8.572431491e-07 4.871879883e-19 -0.002087301797)
(8.604452882e-07 4.909358302e-19 -0.00208734761)
(8.615010434e-07 4.690894196e-19 -0.002087399326)
(8.599853943e-07 4.510465417e-19 -0.002087456307)
(8.555621355e-07 4.354443958e-19 -0.002087517925)
(8.481173766e-07 4.207104187e-19 -0.002087583596)
(8.377761631e-07 4.059609584e-19 -0.002087652785)
(8.247861503e-07 4.056538718e-19 -0.00208772499)
(8.093934787e-07 4.036657216e-19 -0.00208779972)
(7.917951658e-07 4.114859509e-19 -0.002087876476)
(7.721375775e-07 4.174402545e-19 -0.002087954752)
(7.505290747e-07 4.289260245e-19 -0.002088034032)
(7.270388937e-07 4.4023888e-19 -0.0020881138)
(7.017048897e-07 4.458226741e-19 -0.002088193536)
(6.745624621e-07 4.509307014e-19 -0.002088272726)
(6.456740935e-07 4.555519653e-19 -0.002088350871)
(6.151389114e-07 4.59735023e-19 -0.002088427489)
(5.830770015e-07 4.636926966e-19 -0.002088502119)
(5.496068488e-07 4.669403705e-19 -0.002088574317)
(5.148351024e-07 4.660822365e-19 -0.002088643659)
(4.788589759e-07 4.611080417e-19 -0.002088709737)
(4.417670956e-07 4.557678064e-19 -0.002088772163)
(4.036376415e-07 4.499641721e-19 -0.002088830564)
(3.645350827e-07 4.513535312e-19 -0.002088884582)
(3.245150276e-07 4.513386874e-19 -0.002088933875)
(2.83631402e-07 4.55969259e-19 -0.002088978109)
(2.419327623e-07 4.59849002e-19 -0.002089016961)
(1.994579982e-07 4.636500288e-19 -0.002089050112)
(1.562348577e-07 4.641512281e-19 -0.002089077247)
(1.123213144e-07 4.679594155e-19 -0.002089098051)
(6.798346885e-08 4.670782649e-19 -0.002089112205)
(2.380993182e-08 4.693039246e-19 -0.002089119387)
(5.197216139e-08 8.557336494e-20 -0.00208916442)
(1.353133607e-07 1.817210497e-19 -0.002089160156)
(2.119270959e-07 2.704766956e-19 -0.00208915185)
(2.87424372e-07 2.418294137e-19 -0.002089140344)
(3.580411891e-07 2.423760967e-19 -0.002089126666)
(4.225855314e-07 2.558417249e-19 -0.002089112052)
(4.805811799e-07 2.787008777e-19 -0.002089097852)
(5.316420654e-07 3.065932758e-19 -0.002089085604)
(5.757525969e-07 3.383981134e-19 -0.002089077027)
(6.13205268e-07 3.736416251e-19 -0.002089073981)
(6.446225535e-07 3.680355426e-19 -0.002089078012)
(6.708485973e-07 3.662417536e-19 -0.002089089864)
(6.92733921e-07 3.697007851e-19 -0.002089109495)
(7.111902465e-07 3.774045619e-19 -0.002089136576)
(7.269809473e-07 3.894057665e-19 -0.002089170744)
(7.406509549e-07 4.05571735e-19 -0.002089211627)
(7.524514871e-07 4.049900017e-19 -0.002089258841)
(7.623489904e-07 3.828772633e-19 -0.00208931195)
(7.70112351e-07 3.632081548e-19 -0.00208937045)
(7.753759444e-07 3.454702237e-19 -0.002089433797)
(7.777798032e-07 3.290794837e-19 -0.002089501441)
(7.771600059e-07 3.32107823e-19 -0.002089572861)
(7.736034368e-07 3.354319743e-19 -0.002089647581)
(7.673331533e-07 3.394757693e-19 -0.002089725166)
(7.58590036e-07 3.447465694e-19 -0.002089805192)
(7.475780458e-07 3.380786727e-19 -0.002089887227)
(7.34456076e-07 3.325487411e-19 -0.002089970828)
(7.193440156e-07 3.340417803e-19 -0.002090055538)
(7.023260065e-07 3.362066134e-19 -0.002090140892)
(6.834485579e-07 3.394184442e-19 -0.002090226417)
(6.627344005e-07 3.488946233e-19 -0.002090311641)
(6.40213682e-07 3.532969123e-19 -0.002090396098)
(6.15952524e-07 3.635267118e-19 -0.002090479334)
(5.900554355e-07 3.678945619e-19 -0.002090560916)
(5.626387754e-07 3.730017183e-19 -0.002090640424)
(5.338095152e-07 3.782423952e-19 -0.002090717457)
(5.036626218e-07 3.789907961e-19 -0.002090791629)
(4.7228597e-07 3.795494134e-19 -0.002090862566)
(4.397604038e-07 3.815079337e-19 -0.002090929914)
(4.061537365e-07 3.827886417e-19 -0.00209099333)
(3.7152338e-07 3.840087637e-19 -0.002091052486)
(3.35923572e-07 3.846505902e-19 -0.002091107065)
(2.994032879e-07 3.806392917e-19 -0.002091156759)
(2.619981631e-07 3.831244441e-19 -0.002091201268)
(2.237377499e-07 3.855174239e-19 -0.002091240297)
(1.846572505e-07 3.872171476e-19 -0.002091273552)
(1.447887519e-07 3.903408543e-19 -0.002091300739)
(1.041885451e-07 3.924150412e-19 -0.002091321559)
(6.311611976e-08 3.955666382e-19 -0.002091335706)
(2.215602904e-08 3.978723597e-19 -0.002091342866)
(4.232843615e-08 -8.50699053e-20 -0.002090864976)
(1.102018787e-07 -6.081194998e-20 -0.002090863776)
(1.723664326e-07 -7.69030739e-20 -0.002090862507)
(2.333729687e-07 -1.080584894e-21 -0.002090861736)
(2.901961328e-07 3.91183798e-20 -0.002090862422)
(3.417818861e-07 1.528827037e-19 -0.002090865844)
(3.879012994e-07 2.462663421e-19 -0.002090873326)
(4.287326275e-07 3.303519939e-19 -0.002090885986)
(4.645768306e-07 3.641609238e-19 -0.002090904536)
(4.959910026e-07 3.580828161e-19 -0.002090929237)
(5.236606103e-07 3.54461117e-19 -0.002090960118)
(5.482587617e-07 3.095035082e-19 -0.002090997069)
(5.703933322e-07 2.657660065e-19 -0.002091039955)
(5.904878044e-07 2.200116777e-19 -0.002091088592)
(6.08748447e-07 1.954622489e-19 -0.002091142738)
(6.251599186e-07 1.605613114e-19 -0.002091202081)
(6.395569007e-07 1.675715196e-19 -0.002091266225)
(6.516079765e-07 1.621995695e-19 -0.002091334727)
(6.609673541e-07 1.468914931e-19 -0.002091407122)
(6.674601572e-07 1.435261911e-19 -0.002091482957)
(6.711045992e-07 1.6909767e-19 -0.002091561819)
(6.720611659e-07 1.86196823e-19 -0.002091643336)
(6.705452163e-07 1.971339684e-19 -0.002091727155)
(6.667444851e-07 2.02833937e-19 -0.002091812915)
(6.608073026e-07 2.041351532e-19 -0.002091900237)
(6.528641021e-07 2.140756777e-19 -0.002091988726)
(6.430120491e-07 2.20567892e-19 -0.002092077972)
(6.313018325e-07 2.237200682e-19 -0.002092167557)
(6.177522572e-07 2.299749435e-19 -0.00209225705)
(6.023779968e-07 2.339961822e-19 -0.002092346025)
(5.852179752e-07 2.355839624e-19 -0.002092434061)
(5.663478919e-07 2.400055534e-19 -0.002092520752)
(5.458685629e-07 2.482327073e-19 -0.002092605709)
(5.23883848e-07 2.543964074e-19 -0.00209268856)
(5.004864112e-07 2.58806151e-19 -0.002092768945)
(4.757555821e-07 2.615292087e-19 -0.002092846515)
(4.497618269e-07 2.627778245e-19 -0.002092920938)
(4.225700969e-07 2.721692443e-19 -0.002092991895)
(3.942358894e-07 2.850374073e-19 -0.002093059077)
(3.648071739e-07 2.931827739e-19 -0.002093122186)
(3.343282771e-07 3.046816184e-19 -0.002093180936)
(3.028402224e-07 3.086322641e-19 -0.002093235045)
(2.703801219e-07 3.122579069e-19 -0.002093284239)
(2.369837574e-07 3.116287902e-19 -0.002093328244)
(2.026886409e-07 3.105951888e-19 -0.002093366791)
(1.67530709e-07 3.09171298e-19 -0.002093399608)
(1.315425755e-07 3.108436588e-19 -0.002093426421)
(9.47842063e-08 3.081786925e-19 -0.002093446944)
(5.750176029e-08 3.131356278e-19 -0.002093460884)
(2.02558123e-08 3.142720088e-19 -0.002093467933)
(3.084794552e-08 6.417996657e-20 -0.002092614943)
(8.037616939e-08 1.079856762e-19 -0.002092617954)
(1.258612572e-07 1.331206888e-19 -0.002092625699)
(1.706463883e-07 1.570002178e-19 -0.002092637929)
(2.126858317e-07 1.771110364e-19 -0.002092654784)
(2.515387019e-07 1.966776496e-19 -0.002092676541)
(2.872612878e-07 2.151551332e-19 -0.002092703442)
(3.200397882e-07 2.327689386e-19 -0.002092735615)
(3.502347121e-07 2.513687255e-19 -0.002092773108)
(3.78237052e-07 2.705631095e-19 -0.002092815929)
(4.043558731e-07 2.523083908e-19 -0.002092864008)
(4.288380802e-07 2.360394229e-19 -0.002092917234)
(4.517946094e-07 2.205990888e-19 -0.002092975419)
(4.731781144e-07 2.05095177e-19 -0.002093038307)
(4.928275017e-07 1.879559994e-19 -0.002093105564)
(5.10439166e-07 1.697939433e-19 -0.002093176812)
(5.256835241e-07 1.792678467e-19 -0.002093251643)
(5.383741262e-07 1.875624884e-19 -0.002093329656)
(5.484596089e-07 1.953923021e-19 -0.002093410487)
(5.560034014e-07 2.035664743e-19 -0.002093493816)
(5.611736955e-07 2.124734016e-19 -0.002093579338)
(5.641669604e-07 2.219245989e-19 -0.002093666749)
(5.651273327e-07 2.318649125e-19 -0.002093755726)
(5.641596625e-07 2.263304774e-19 -0.002093845926)
(5.613432245e-07 2.210434144e-19 -0.002093936991)
(5.567280245e-07 2.311999364e-19 -0.002094028553)
(5.503243012e-07 2.413250637e-19 -0.002094120231)
(5.42118149e-07 2.436246376e-19 -0.002094211635)
(5.321117909e-07 2.468227201e-19 -0.002094302381)
(5.203454768e-07 2.498045699e-19 -0.002094392094)
(5.068981153e-07 2.528188424e-19 -0.002094480413)
(4.918683116e-07 2.56036297e-19 -0.002094566993)
(4.75348624e-07 2.530288698e-19 -0.002094651499)
(4.574163205e-07 2.50568926e-19 -0.002094733611)
(4.381410645e-07 2.480366701e-19 -0.002094813017)
(4.175871365e-07 2.453507616e-19 -0.002094889421)
(3.958093214e-07 2.425032593e-19 -0.002094962536)
(3.728488666e-07 2.433036375e-19 -0.002095032089)
(3.487391094e-07 2.440036053e-19 -0.002095097814)
(3.235128088e-07 2.450432033e-19 -0.002095159455)
(2.971979495e-07 2.452062366e-19 -0.00209521676)
(2.698173509e-07 2.496469961e-19 -0.002095269481)
(2.413983924e-07 2.54653799e-19 -0.00209531737)
(2.119843387e-07 2.547546921e-19 -0.002095360182)
(1.816301818e-07 2.553768885e-19 -0.002095397667)
(1.503818468e-07 2.557676788e-19 -0.002095429572)
(1.182719512e-07 2.563617286e-19 -0.002095455639)
(8.535939097e-08 2.565252204e-19 -0.002095475595)
(5.187721245e-08 2.564078731e-19 -0.002095489153)
(1.835577096e-08 2.561495658e-19 -0.002095496013)
(2.133874858e-08 2.590728763e-19 -0.002094454595)
(5.569881727e-08 3.279813679e-19 -0.002094460085)
(8.764706932e-08 4.165078435e-19 -0.002094472697)
(1.197427955e-07 3.633348514e-19 -0.00209449165)
(1.507908326e-07 3.510588367e-19 -0.002094516632)
(1.805506431e-07 2.667495379e-19 -0.002094547471)
(2.090447252e-07 2.000453464e-19 -0.002094584001)
(2.363892948e-07 1.430421945e-19 -0.00209462606)
(2.627190474e-07 1.008885826e-19 -0.002094673484)
(2.880855468e-07 1.120145467e-19 -0.002094726065)
(3.12494122e-07 1.156026184e-19 -0.002094783558)
(3.358488524e-07 1.516808321e-19 -0.002094845675)
(3.579536757e-07 1.834716246e-19 -0.002094912074)
(3.78532716e-07 2.139659469e-19 -0.002094982379)
(3.97273458e-07 2.112292001e-19 -0.002095056204)
(4.139667702e-07 2.108760253e-19 -0.002095133162)
(4.284801735e-07 2.123638177e-19 -0.002095212914)
(4.40813674e-07 2.144962429e-19 -0.002095295159)
(4.510968096e-07 2.169200247e-19 -0.002095379617)
(4.594660433e-07 2.199724284e-19 -0.002095466012)
(4.660207467e-07 2.238996038e-19 -0.002095554065)
(4.708162085e-07 2.289679943e-19 -0.002095643472)
(4.738906438e-07 2.355047203e-19 -0.002095733916)
(4.752913565e-07 2.446963613e-19 -0.002095825063)
(4.750393968e-07 2.566512606e-19 -0.002095916565)
(4.731149369e-07 2.551292253e-19 -0.002096008067)
(4.694919188e-07 2.563509242e-19 -0.00209609921)
(4.641686978e-07 2.598495264e-19 -0.002096189645)
(4.571804557e-07 2.576326158e-19 -0.002096279037)
(4.485869553e-07 2.525345354e-19 -0.002096367067)
(4.384568672e-07 2.481702521e-19 -0.002096453427)
(4.2685851e-07 2.448545646e-19 -0.002096537822)
(4.138543472e-07 2.363207342e-19 -0.002096619964)
(3.995006945e-07 2.33806574e-19 -0.002096699577)
(3.838477252e-07 2.314765464e-19 -0.002096776397)
(3.669406094e-07 2.291768387e-19 -0.002096850169)
(3.488185934e-07 2.26611309e-19 -0.002096920648)
(3.295156113e-07 2.22069721e-19 -0.002096987596)
(3.09058849e-07 2.170266835e-19 -0.002097050785)
(2.874592557e-07 2.160040712e-19 -0.002097109989)
(2.647256658e-07 2.102008799e-19 -0.002097164986)
(2.408824263e-07 2.079826208e-19 -0.002097215556)
(2.159651207e-07 2.051351269e-19 -0.002097261477)
(1.900184767e-07 2.054637795e-19 -0.002097302524)
(1.630992143e-07 2.051256525e-19 -0.002097338468)
(1.352661621e-07 2.04133697e-19 -0.00209736907)
(1.065575614e-07 2.025972628e-19 -0.002097394082)
(7.702578516e-08 2.043919264e-19 -0.002097413244)
(4.689146798e-08 2.024228655e-19 -0.002097426276)
(1.666845603e-08 1.997989914e-19 -0.002097432881)
(1.56552328e-08 1.345096158e-19 -0.002096347036)
(4.095417652e-08 3.012343394e-20 -0.002096353577)
(6.483289897e-08 1.062856491e-19 -0.002096368095)
(8.932421327e-08 1.548322485e-19 -0.002096389699)
(1.136471158e-07 1.993782394e-19 -0.002096417936)