/*--------------------------------*- C++ -*----------------------------------*\
  =========                 |
  \\      /  F ield         | OpenFOAM: The Open Source CFD Toolbox
   \\    /   O peration     | Website:  https://openfoam.org
    \\  /    A nd           | Version:  7
     \\/     M anipulation  |
\*---------------------------------------------------------------------------*/
FoamFile
{
    version     2.0;
    format      ascii;
    class       volScalarField;
    location    "0.0024";
    object      generalizedNewtonian:nu;
}
// * * * * * * * * * * * * * * * * * * * * * * * * * * * * * * * * * * * * * //

dimensions      [0 2 -1 0 0 0 0];

internalField   nonuniform List<scalar> 
1167
(
15.38251681
15.21712438
14.94103412
14.49231514
13.92314768
13.24142857
12.46063219
11.59700654
10.66877388
9.697291733
8.706853991
7.723641394
6.773704054
5.880163543
5.06060616
4.325631849
3.678948202
15.61642567
15.44596437
15.15556641
14.68950323
14.09830202
13.39157271
12.58374133
11.69290636
10.73894842
9.744387469
8.734479604
7.736084564
6.775331444
5.874846018
5.051390224
4.314686721
3.667712132
3.107963183
2.629141361
2.222946082
1.880392996
1.592607247
1.351383697
1.149402446
0.9802937861
0.8386236537
0.7197915188
0.6199523709
0.5358995504
0.4649719015
0.4049694735
0.3540691722
0.310766141
0.2738166281
0.2421902038
0.215035049
0.1916456137
0.1714345834
0.1539136844
0.1386759993
0.125381566
0.1137456341
0.1035292686
0.09453125445
0.08658177961
0.07953702329
0.07327505122
0.06769159339
0.0626966797
0.05820988039
15.87246691
15.69632055
15.39010606
14.90491234
14.28950152
13.55526826
12.71797745
11.7973551
10.8152246
9.795563842
8.764700686
7.750045834
6.777710124
5.8697862
5.042162362
4.303632869
3.656378009
3.09718925
2.619337374
2.214289158
1.872890094
1.586188944
1.345951696
1.144839203
0.9764875194
0.8354638602
0.7171805353
0.6178053262
0.5341403896
0.4635367984
0.4038025686
0.3531241417
0.310004469
0.2732053371
0.2417022607
0.2146482129
0.1913416566
0.1711981548
0.1537323199
0.1385395201
0.1252816401
0.1136754471
0.1034832557
0.09450487582
0.08657127632
0.07953933804
0.07328772053
0.06771259572
0.06272437272
0.05824294961
16.15170501
15.96915226
15.6456719
15.13929384
14.49713764
13.73256287
12.86335585
11.91040294
10.89761727
9.850784245
8.797380884
7.76536083
6.780746145
5.864965689
5.032965237
4.292585085
3.6450342
3.086413011
2.609563137
2.205689044
1.865465233
1.579868774
1.340621779
1.1403763
0.9727758319
0.8323909878
0.7146487476
0.6157265408
0.5324395115
0.4621507654
0.4026764621
0.3522125743
0.3092698593
0.2726156628
0.2412314108
0.2142748702
0.1910478715
0.1709692998
0.1535564456
0.1384068562
0.125184191
0.1136066811
0.103437859
0.09447844683
0.08656020972
0.07954069552
0.07329914587
0.06773214739
0.06275046965
0.05827432342
16.45471254
16.26514857
15.92262887
15.39283056
14.72141957
13.92361576
13.01955303
12.03175433
10.98590641
9.909820719
8.832336915
7.781922726
6.784368095
5.860373242
5.023892194
4.281611082
3.633740923
3.075688758
2.599873385
2.197188553
1.858148166
1.573661828
1.335404973
1.136022796
0.9691643052
0.8294076722
0.7121957952
0.6137156879
0.530796325
0.4608129907
0.4015902599
0.3513337242
0.3085616108
0.2720470228
0.2407771488
0.2139144454
0.1907639242
0.1707477845
0.153385891
0.1382778871
0.12508914
0.1135392932
0.1033930298
0.09445193041
0.08654856452
0.07954111875
0.07330933644
0.0677502556
0.0627749778
0.05830400869
16.78223651
16.58497375
16.22148082
15.66583561
14.96237165
14.12827591
13.18605844
12.16076537
11.0796848
9.972429306
8.869367518
7.799550636
6.78849296
5.856074805
5.015019965
4.270765039
3.622542888
3.065070957
2.590303186
2.188816417
1.850965294
1.567585215
1.330311388
1.131786235
0.9656572128
0.8265162585
0.7098221939
0.6117726224
0.5292110845
0.4595229413
0.4005433507
0.3504872946
0.3078792211
0.2714989686
0.2403391067
0.2135666097
0.1904895796
0.1705334368
0.1532205314
0.1381525263
0.1249964367
0.1134732879
0.1033487346
0.09442531182
0.08653633103
0.07954058299
0.07331828917
0.06776692072
0.06279789626
0.0583320024
17.13503256
16.92931768
16.54281661
15.9588994
15.22019667
14.34650131
13.36266917
12.29670403
11.17806221
10.037983
8.908109072
7.818097008
6.793163089
5.85211939
5.006354449
4.260060203
3.611474515
3.054609674
2.580890006
2.180597011
1.843938388
1.561654472
1.325351476
1.127669765
0.9622567624
0.8237192989
0.7075290748
0.609897667
0.5276831171
0.4582802621
0.3995352973
0.3496724178
0.3072222136
0.2709711516
0.2399170987
0.2132311603
0.19022468
0.1703261465
0.1530602952
0.1380307327
0.1249060659
0.113408595
0.1033049533
0.09439858231
0.08652350247
0.0795390811
0.07332599585
0.06778213293
0.0628192133
0.05835829094
17.51375124
17.29858481
16.88681054
16.27197195
15.49470857
14.57803839
13.54909338
12.43906215
11.28023083
10.10564108
8.948005905
7.837285461
6.798182557
5.848356868
4.997818961
4.249476601
3.600557625
3.044317486
2.571651256
2.172549809
1.837075825
1.555876925
1.320533097
1.123678415
0.9589655708
0.8210177587
0.7053170026
0.6080909778
0.5262120199
0.4570845816
0.3985657575
0.3488887707
0.3065902977
0.2704633477
0.239511029
0.2129079809
0.1899691387
0.1701258582
0.1529051503
0.1379124946
0.124818053
0.1133452111
0.1032616773
0.09437173285
0.08651006819
0.07953660006
0.07333244072
0.0677958736
0.06283890753
0.05838285053
17.91913684
17.69329452
17.25387404
16.6049446
15.78547471
14.82195889
13.744612
12.58737955
11.38575644
10.17490536
8.988544331
7.856674031
6.803228406
5.844594603
4.98932199
4.238991487
3.589809563
3.034210351
2.562596464
2.164692775
1.830390226
1.550259897
1.315861812
1.11981615
0.9557863039
0.8184119017
0.7031860873
0.6063529474
0.524797727
0.4559357503
0.3976349691
0.3481362985
0.3059834223
0.2699754943
0.239120677
0.2125970264
0.1897229559
0.1699325881
0.1527551226
0.1377978381
0.1247323627
0.1132831419
0.1032189138
0.09434476278
0.08649601909
0.07953312416
0.07333760568
0.06780811594
0.06285694787
0.05840564764
18.35142374
18.11356129
17.64402724
16.95754116
16.09190137
15.0773757
13.9482263
12.7408694
11.49397238
10.24521461
9.029258738
7.875897753
6.808077116
5.840709021
4.980804615
4.228625172
3.579238801
3.024299546
2.553741673
2.157033304
1.823890111
1.544811328
1.311339949
1.116084802
0.9527214431
0.815902981
0.7011369486
0.6046842136
0.5234404571
0.4548338309
0.396742771
0.3474149683
0.3054015891
0.269507622
0.2387460896
0.2122983514
0.1894861915
0.1697463976
0.1526102825
0.1376868936
0.1246490456
0.1132224149
0.1031766781
0.09431767561
0.08648134668
0.07952863477
0.07334146692
0.06781882434
0.06287329236
0.05842663634
18.80930019
18.55812582
18.05582995
17.32813314
16.41254048
15.34294906
14.15814388
12.89808368
11.6039403
10.31586306
9.069616826
7.894603525
6.812482635
5.836555326
4.972247775
4.218365811
3.568837464
3.014582312
2.545100892
2.14957932
1.817579854
1.53953925
1.306972356
1.112487024
0.949772888
0.813492399
0.699170447
0.6030843838
0.5221403323
0.4537789471
0.3958889574
0.3467247521
0.3048448691
0.2690601159
0.238387414
0.2120120802
0.1892589791
0.1695674216
0.1524707389
0.1375796721
0.1245681678
0.1131630873
0.1031350061
0.09429048607
0.08646604663
0.07952310934
0.07334398047
0.06782795314
0.0628878903
0.05844576232
19.29044033
19.02446071
18.48722466
17.71477937
16.74520813
15.6166193
14.37233365
13.05693554
11.71418605
10.38597385
9.109062864
7.912405048
6.816225285
5.832089005
4.963645937
4.208193677
3.558591572
3.005061471
2.536678604
2.142337878
1.811465269
1.534445305
1.302761504
1.10902507
0.946940462
0.8111803712
0.697287063
0.6015538039
0.5208975699
0.4527714491
0.395073823
0.3460659538
0.3043135077
0.2686329352
0.2380448416
0.2117384299
0.1890415207
0.169395858
0.1523367419
0.1374763198
0.1244898369
0.11310524
0.1030939519
0.09426322108
0.08645012012
0.07951652609
0.07334510525
0.06783544613
0.062900674
0.05846294916
19.79183737
19.50943293
18.93516825
18.11463571
17.08708961
15.8959008
14.58874488
13.21526089
11.82260775
10.45412944
9.146806171
7.928925096
6.819205534
5.827266395
4.954933526
4.198062596
3.548479305
2.99574023
2.52847222
2.135307318
1.805548832
1.529529261
1.298707222
1.105700727
0.9442248147
0.8089671728
0.6954882565
0.6000929178
0.5197125075
0.4518121059
0.3942977509
0.3454389109
0.3038078383
0.2682263699
0.2377186671
0.2114776909
0.1888340939
0.169231948
0.1522084498
0.1373770113
0.1244142005
0.1130489846
0.1030535897
0.09423591857
0.08643357133
0.07950885956
0.07334479185
0.06784123671
0.06291156721
0.058478118
20.30877819
20.00808677
19.39519403
18.52301651
17.43390824
16.1769322
14.80440131
13.37087521
11.92741978
10.51879697
9.181826397
7.943596457
6.821051229
5.821821789
4.945946177
4.187882791
3.538460665
2.986597592
2.520470049
2.128479385
1.79983039
1.524791448
1.29480978
1.102514322
0.941626722
0.8068534434
0.6937730337
0.5987019282
0.5185854662
0.4509006093
0.3935609448
0.3448439742
0.303328453
0.2678408342
0.2374092809
0.2112302443
0.1886370681
0.1690760583
0.1520861388
0.1372820052
0.1243414777
0.1129944935
0.1030140435
0.09420865404
0.08641642913
0.07950009564
0.07334298842
0.06784524122
0.06292045971
0.05849113528
20.83399148
20.51287675
19.86099507
18.9340452
17.78030501
16.45480451
15.01559333
13.5212542
12.02687186
10.57876227
9.213207412
7.955749268
6.821300147
5.815463971
4.936516216
4.177562341
3.528512295
2.97761355
2.512658742
2.121849382
1.794302468
1.520228786
1.291068283
1.099463653
0.939145287
0.8048390472
0.6921414636
0.597380912
0.5175166875
0.4500372924
0.3928637678
0.3442815183
0.3028756783
0.2674767118
0.2371170718
0.2109964685
0.1884508128
0.1689285955
0.1519701229
0.1371915718
0.1242718992
0.1129419523
0.1029754479
0.09418150846
0.08639872089
0.07949021197
0.073339631
0.06784736694
0.06292724731
0.05850190439
21.35658898
21.01253678
20.32232942
19.33855713
18.11887309
16.72356402
15.21745789
13.66302891
12.118694
10.63250626
9.239978171
7.964748867
6.819570269
5.807969581
4.926504816
4.16704019
3.51857827
2.968749248
2.505013033
2.11541045
1.788958342
1.515835217
1.287481644
1.096547203
0.9367794389
0.8029250388
0.6905937041
0.5961301808
0.5165073982
0.449222886
0.392206943
0.3437522447
0.302450038
0.2671346606
0.2368427104
0.2107770161
0.1882759307
0.1687900247
0.1518609112
0.1371061828
0.1242058783
0.1128917076
0.102938077
0.09415467764
0.08638056085
0.07947924032
0.07333467077
0.06784748796
0.062931729
0.05851014635
21.85945329
21.49031026
20.76517651
19.72400681
18.43909287
16.97498944
15.40326463
13.7916061
12.20019457
10.67830934
9.260980784
7.969862298
6.815379981
5.799020615
4.915749511
4.156233429
3.508595846
2.959959186
2.497507213
2.109140944
1.783786501
1.51160384
1.284043529
1.093761939
0.9345273417
0.8011085182
0.6891287093
0.5949491804
0.5155566076
0.4484571156
0.3915904521
0.3432564029
0.3020517452
0.2668149217
0.2365864666
0.2105721984
0.1881128451
0.1686606794
0.1517588178
0.1370261412
0.1241436966
0.1128440063
0.1029021288
0.0941282983
0.08636201415
0.07946717122
0.07332803242
0.06784548884
0.06293379529
0.05851581765
22.31692582
21.92211073
21.16994108
20.07430811
18.72751106
17.19854613
15.56502352
13.90050213
12.26695621
10.71350528
9.27453716
7.969948413
6.807966817
5.788165623
4.903984233
4.14493263
3.49841556
2.951142461
2.490082331
2.102996923
1.778755851
1.507515374
1.280739878
1.091098628
0.9323834866
0.7993861686
0.6877446454
0.5938371772
0.5146641124
0.4477403054
0.3910149792
0.3427950656
0.3016818484
0.2665185941
0.236349465
0.2103831169
0.1879625788
0.168541577
0.1516648153
0.1369523584
0.1240861928
0.1127996013
0.102868255
0.09410290076
0.08634346758
0.07945422337
0.07331974082
0.0678411727
0.0629329918
0.05851815762
22.70326951
22.27979917
21.51051236
20.36707227
18.96649697
17.38131837
15.69371806
13.98289041
12.31360375
10.73452101
9.278465779
7.963665926
6.796525522
5.774874185
4.890779789
4.132814331
3.487808412
2.942143471
2.482624441
2.096897532
1.77380791
1.503530924
1.277540737
1.088534771
0.9303332151
0.7977458906
0.6864322205
0.5927877131
0.5138245545
0.4470682703
0.3904771673
0.342365219
0.3013381611
0.266243985
0.23613038
0.2102087348
0.1878242803
0.1684321272
0.1515784998
0.1368845809
0.124033236
0.1127584557
0.1028364784
0.09407852937
0.08632494763
0.07944037536
0.0733097242
0.06783446902
0.06292938237
0.05851757061
22.94223113
22.50803885
21.74194748
20.56295183
19.12201505
17.49458896
15.76690881
14.02217286
12.32781695
10.73207348
9.266146088
7.9464792
6.777904515
5.756911343
4.87456862
4.118794961
3.476030256
2.932465942
2.474782892
2.090597197
1.768772894
1.499528345
1.274363278
1.086013472
0.9283351231
0.7961606256
0.6851735506
0.5917888162
0.5130306688
0.4464369066
0.3899751465
0.3419664057
0.3010211831
0.2659922306
0.2359307819
0.2100510144
0.1876998743
0.1683342753
0.1515018083
0.1368247017
0.1239866482
0.112722297
0.1028084057
0.09405662967
0.08630767195
0.0794265108
0.07329837467
0.06782506186
0.06292166002
0.05851142758
23.18823248
22.71092401
21.94408777
20.72205588
19.23665034
17.5657467
15.80078699
14.02692877
12.31308988
10.70658722
9.236258412
7.916361565
6.749971879
5.732341545
4.853730622
4.101559639
3.462041394
2.92128047
2.465913037
2.083598427
1.763273489
1.495214893
1.270980605
1.083360134
0.9262534366
0.7945243183
0.6838855282
0.590774596
0.5122304107
0.4458048577
0.3894762288
0.3415720784
0.3007094611
0.2657459648
0.235736537
0.2098982991
0.1875800026
0.1682404571
0.1514286499
0.1367678667
0.1239426243
0.1126882144
0.1027818857
0.09403568661
0.08629064798
0.07941206856
0.07328553419
0.06781331245
0.06291109137
0.05850259674
22.72099602
22.22512733
21.48643467
20.32570336
18.90751042
17.29745178
15.58491982
13.85389903
12.17424025
10.59562523
9.148134949
7.846787256
6.695380681
5.689767209
4.820702365
4.076060184
3.442466309
2.906293355
2.454447308
2.074826801
1.756565829
1.490076623
1.267036125
1.080328309
0.9239161552
0.7927177256
0.682486771
0.5896891211
0.5113861162
0.4451472208
0.3889640684
0.3411726751
0.3003979499
0.2655032364
0.2355478458
0.2097521309
0.1874671093
0.1681536741
0.1513623439
0.1367175541
0.1239047027
0.1126597519
0.1027604366
0.0940191515
0.08627714682
0.07939984703
0.07327290843
0.06779873756
0.06289333839
0.05848091688
22.44747335
22.08015272
21.37680681
20.13351228
18.64485374
16.99829855
15.28207968
13.57180592
11.92594027
10.38603954
8.976981641
7.710524777
6.588967892
5.607873554
4.758381689
4.02906072
3.407222347
2.879943507
2.434771147
2.060141274
1.745594113
1.481857889
1.260860591
1.075674706
0.9203941789
0.790040895
0.6804455367
0.5881255801
0.5101837769
0.4442196213
0.3882469083
0.3406165134
0.2999657843
0.265167118
0.2352866537
0.2095491721
0.1873096801
0.1680319485
0.1512686671
0.1366459078
0.1238503134
0.1126187817
0.1027297208
0.09399599518
0.08625915204
0.07938480286
0.07325875667
0.06778373001
0.06287649993
0.05846268941
24.67662665
23.6160685
22.43400732
20.83804846
19.057464
17.19416078
15.33473589
13.54108265
11.85396026
10.29898838
8.890083213
7.631691324
6.5213988
5.552086878
4.713537101
3.993669446
3.379633559
2.858618928
2.418388916
2.047619817
1.736041165
1.474572883
1.255307346
1.071437428
0.9171551422
0.7875604342
0.6785441729
0.5866643066
0.5090587268
0.4433531154
0.3875783394
0.3401002964
0.2995672429
0.2648598105
0.2350505122
0.2093681691
0.1871716372
0.1679274429
0.1511903622
0.1365880504
0.1238083682
0.112589142
0.102709456
0.09398263039
0.08625040348
0.07937819197
0.07325090132
0.06776918932
0.06284671097
0.05840774782
)
;

boundaryField
{
    front_top
    {
        type            wedge;
    }
    front_middle
    {
        type            wedge;
    }
    front_bottom
    {
        type            wedge;
    }
    back_top
    {
        type            wedge;
    }
    back_middle
    {
        type            wedge;
    }
    back_bottom
    {
        type            wedge;
    }
    axis_top
    {
        type            symmetryPlane;
    }
    axis_middle
    {
        type            symmetryPlane;
    }
    axis_bottom
    {
        type            symmetryPlane;
    }
    wall_top
    {
        type            calculated;
        value           nonuniform 0();
    }
    wall_middle
    {
        type            calculated;
        value           nonuniform 0();
    }
    wall_bottom
    {
        type            calculated;
        value           nonuniform List<scalar> 
23
(
0.05616710344
0.05620237718
0.05623592104
0.05626774141
0.05629783427
0.05632618513
0.05635276921
0.05637755214
0.05640048654
0.05642151704
0.05644056373
0.05645754816
0.05647232666
0.05648481046
0.05649468417
0.05650194881
0.05650569323
0.05650652958
0.05650115473
0.05649335052
0.05646986742
0.05645135574
0.05638285157
)
;
    }
    inlet
    {
        type            calculated;
        value           nonuniform 0();
    }
    outlet
    {
        type            calculated;
        value           nonuniform List<scalar> 
50
(
25.02751215
23.96405334
22.76392834
21.12795621
19.30272447
17.39376678
15.49172637
13.66087809
11.94306154
10.36376494
8.936183633
7.663882367
6.543502377
5.567041109
4.72352342
4.000258473
3.383935598
2.86140502
2.420181933
2.048767881
1.736773487
1.475039589
1.255605507
1.071628846
0.9172791761
0.7876420975
0.6785990803
0.5867022232
0.5090857762
0.4433730905
0.3875935661
0.3401122223
0.2995767823
0.2648675436
0.2350568098
0.2093732815
0.1871757431
0.1679306773
0.1511928343
0.1365898535
0.123809586
0.112589853
0.1027097362
0.09398255601
0.0862500538
0.07937765303
0.07325027364
0.06776860126
0.0628463135
0.05840761326
)
;
    }
    procBoundary0to1
    {
        type            processor;
        value           nonuniform List<scalar> 
51
(
15.16980881
15.00895822
14.74577634
14.31294258
13.76375114
13.10494485
12.34867105
11.50953905
10.60466913
9.654469585
8.682101392
7.712975422
6.773001216
5.885799912
5.069784999
4.336384919
3.689993376
3.118664935
3.118664935
2.638910218
2.231617611
1.887944877
1.599098047
1.356900773
1.154055752
0.9841912934
0.8418684689
0.722479631
0.6221674446
0.5377175827
0.4664576032
0.4061783174
0.3550487011
0.3115558925
0.2744504016
0.2426959229
0.2154357281
0.1919601482
0.1716789127
0.1541007789
0.1388164627
0.1254840823
0.1138173078
0.1035759063
0.0945576082
0.08659173196
0.07953374494
0.07326112373
0.06766912228
0.06266737086
0.05817509577
)
;
    }
}


// ************************************************************************* //
