/*--------------------------------*- C++ -*----------------------------------*\
  =========                 |
  \\      /  F ield         | OpenFOAM: The Open Source CFD Toolbox
   \\    /   O peration     | Website:  https://openfoam.org
    \\  /    A nd           | Version:  7
     \\/     M anipulation  |
\*---------------------------------------------------------------------------*/
FoamFile
{
    version     2.0;
    format      ascii;
    class       volVectorField;
    location    "0.0024";
    object      grad(generalizedNewtonian:nu);
}
// * * * * * * * * * * * * * * * * * * * * * * * * * * * * * * * * * * * * * //

dimensions      [0 1 -1 0 0 0 0];

internalField   nonuniform List<vector> 
1167
(
(-21129.98896 0 -22330.84292)
(-40728.49623 0 -21850.30738)
(-65602.02648 -1.766087453e-09 -20489.50347)
(-91832.71969 0 -18828.03245)
(-114378.2108 0 -16727.54361)
(-135848.097 0 -14331.39278)
(-155345.4492 0 -11753.51373)
(-172261.1863 0 -9168.365266)
(-185911.0524 -6.136491728e-10 -6713.964713)
(-195482.8426 5.645090647e-10 -4495.894192)
(-200242.786 0 -2618.910612)
(-199731.7318 0 -1155.457068)
(-193975.51 0 -116.5114309)
(-183591.3866 -2.218936483e-10 547.6946931)
(-169693.603 0 919.738745)
(-153636.8038 1.021184976e-10 1084.9099)
(-136724.9389 0 1114.062231)
(-21777.57048 1.676159064e-08 -24497.50497)
(-42589.3464 0 -23959.80853)
(-68413.63214 1.766087453e-09 -22453.59684)
(-95385.62597 0 -20629.8597)
(-118670.722 1.037132521e-09 -18317.69202)
(-140673.1712 0 -15691.98415)
(-160455.9961 0 -12867.26311)
(-177333.6129 0 -10017.42788)
(-190670.4647 6.136491728e-10 -7322.536204)
(-199705.8105 -5.645090647e-10 -4913.605447)
(-203742.5189 0 -2892.334738)
(-202403.5565 0 -1320.221999)
(-195832.7773 2.331079767e-10 -200.3035181)
(-184744.8746 -2.218936483e-10 518.8671832)
(-170301.9402 0 922.189926)
(-153857.3737 0 1099.948997)
(-136694.8276 0 1128.509635)
(-119857.6505 0 1073.784289)
(-104060.2169 0 978.6422334)
(-89698.51763 0 866.4226178)
(-76939.56713 0 752.7391683)
(-65791.75727 -4.341488838e-11 645.4551411)
(-56162.89081 0 547.4538427)
(-47914.15324 0 460.8274395)
(-40886.23421 0 385.1887)
(-34920.4297 0 320.2304348)
(-29867.73401 0 264.9547844)
(-25592.6907 0 218.1059231)
(-21977.21542 0 178.859652)
(-18918.08108 -9.841595743e-12 146.0402376)
(-16327.57415 0 118.7874389)
(-14131.45308 0 96.22796972)
(-12266.4784 0 77.57117248)
(-10680.04181 0 62.25322353)
(-9327.855254 0 49.68311032)
(-8172.479594 0 39.37576026)
(-7183.043315 0 30.92457841)
(-6333.793421 0 24.03789209)
(-5602.951883 -4.810378996e-12 18.42295334)
(-4972.354243 0 13.84713079)
(-4426.825363 1.206414697e-12 10.1221131)
(-3953.629516 0 7.093031422)
(-3542.092109 -1.213068337e-12 4.632526689)
(-3183.2662 0 2.636618575)
(-2869.62733 -1.222328066e-12 1.022782014)
(-2594.811494 0 -0.2796552969)
(-2353.523046 0 -1.329839887)
(-2141.508665 0 -2.173672356)
(-1955.794857 0 -2.850093305)
(-1795.429242 0 -3.392692194)
(-22503.87524 0 -26763.96672)
(-44652.25705 0 -26159.39466)
(-71517.4874 0 -24505.27488)
(-99295.29109 0 -22489.53043)
(-123389.4729 0 -19941.78102)
(-145952.6052 0 -17049.50823)
(-166038.5866 -7.590816911e-10 -13980.72612)
(-182887.6389 0 -10874.82909)
(-195864.812 6.136491728e-10 -7933.44261)
(-204275.7833 0 -5319.838783)
(-207500.7048 -2.625550867e-10 -3145.063979)
(-205264.9037 -2.464598854e-10 -1463.813318)
(-197821.8514 0 -270.7350536)
(-185979.5199 0 494.0164595)
(-170949.7868 0 921.2493462)
(-154087.2041 1.021184976e-10 1105.081765)
(-136660.5232 1.972231438e-10 1133.896569)
(-119679.5075 0 1077.50863)
(-103810.2898 0 978.9112145)
(-89422.28086 0 862.8518645)
(-76665.97272 0 746.3881314)
(-65533.97423 0 636.9236164)
(-55927.69156 0 538.095903)
(-47704.1566 0 451.3072649)
(-40701.56022 0 375.897713)
(-34760.18283 0 311.633299)
(-29729.39725 -2.019241095e-11 257.1385611)
(-25474.14807 0 211.2915088)
(-21876.2667 -9.913505491e-12 173.0019451)
(-18832.52264 0 141.0568051)
(-16255.43927 0 114.6505689)
(-14070.67904 0 92.82989362)
(-12215.48368 0 74.81408179)
(-10637.42607 0 60.04826571)
(-9292.250572 0 47.93964768)
(-8142.742853 0 38.00894143)
(-7158.275503 0 29.88711254)
(-6313.224357 0 23.26418113)
(-5585.865173 0 17.86193963)
(-4958.169078 0 13.45715472)
(-4415.060355 0 9.868752168)
(-3943.880758 1.209402773e-12 6.947653562)
(-3534.020923 -1.213068337e-12 4.570478035)
(-3176.600598 0 2.640381176)
(-2864.139524 0 1.078494105)
(-2590.295845 0 -0.1836115519)
(-2349.812701 0 -1.204732278)
(-2138.46947 6.203589913e-13 -2.027700097)
(-1953.307688 0 -2.689497114)
(-1793.380823 0 -3.222151547)
(-23322.33288 0 -29112.28144)
(-46918.49376 0 -28441.4009)
(-74935.69444 0 -26626.14044)
(-103618.4797 0 -24395.91107)
(-128598.2348 0 -21595.90219)
(-151719.2658 0 -18417.37522)
(-172092.6223 0 -15078.77884)
(-188923.6483 0 -11719.96143)
(-201502.6481 0 -8534.090397)
(-209208.0191 0 -5712.843857)
(-211530.0322 0 -3381.811449)
(-208311.0304 0 -1593.844596)
(-199927.3389 0 -332.8985621)
(-187280.7107 -2.218936483e-10 470.6478799)
(-171622.5448 0 913.5083713)
(-154321.5099 1.021184976e-10 1101.089354)
(-136627.0992 0 1131.85431)
(-119496.7315 0 1075.024591)
(-103553.4125 0 973.1994026)
(-89140.26385 0 855.0302452)
(-76387.32743 0 737.0963889)
(-65273.23933 0 626.3558001)
(-55692.22764 0 527.3361545)
(-47495.14158 0 440.820374)
(-40518.65972 0 366.16071)
(-34602.0018 0 302.8094002)
(-29593.62207 0 249.2370082)
(-25358.51813 0 204.4819135)
(-21778.04136 0 167.2032322)
(-18749.49185 -9.841595743e-12 136.1903842)
(-16185.60299 0 110.6154385)
(-14011.966 0 89.52087601)
(-12166.29964 0 72.14290907)
(-10596.36252 0 57.91571591)
(-9257.934152 0 46.25559319)
(-8114.125817 0 36.68837398)
(-7134.482213 0 28.88662005)
(-6293.440703 0 22.51851638)
(-5569.420868 0 17.32144527)
(-4944.508722 0 13.08164577)
(-4403.720199 0 9.62500367)
(-3934.468306 0 6.807694339)
(-3526.220847 0 4.511297038)
(-3170.156321 0 2.647270889)
(-2858.82511 0 1.135590073)
(-2585.91274 -1.227877028e-12 -0.08903525867)
(-2346.200243 0 -1.080795601)
(-2135.501447 0 -1.882993703)
(-1950.870911 0 -2.530253669)
(-1791.367602 0 -3.05295379)
(-24218.0647 0 -31526.57498)
(-49413.71463 0 -30791.07434)
(-78710.96807 0 -28790.44588)
(-108367.2199 0 -26327.08887)
(-134299.705 0 -23261.70085)
(-158025.0733 0 -19785.6521)
(-178658.1801 0 -16135.12976)
(-195431.4797 0 -12518.12156)
(-207577.7373 0 -9103.376307)
(-214498.6424 0 -6082.253035)
(-215818.0867 0 -3599.331699)
(-211530.521 0 -1709.490287)
(-202139.0863 0 -387.3407341)
(-188630.6185 -2.218936483e-10 444.544171)
(-172311.9993 0 897.2636316)
(-154563.9249 1.021184976e-10 1091.002338)
(-136596.0743 0 1124.56563)
(-119309.938 0 1067.102668)
(-103290.9727 0 962.9975748)
(-88855.46864 0 843.63137)
(-76107.02651 0 724.996967)
(-65011.85703 0 614.1779983)
(-55457.25897 0 515.519565)
(-47287.81634 0 429.5032774)
(-40338.37781 0 355.9309549)
(-34446.68472 0 293.7364639)
(-29460.80586 0 241.3276849)
(-25245.83381 0 197.6959172)
(-21682.60818 0 161.4213532)
(-18669.0322 -9.841595743e-12 131.3912048)
(-16118.05503 0 106.6555728)
(-13955.28523 0 86.26398557)
(-12118.90103 0 69.53191228)
(-10556.82077 0 55.83471106)
(-9224.905288 0 44.61520865)
(-8086.599947 0 35.4130246)
(-7111.60746 0 27.9145951)
(-6274.415094 0 21.79314992)
(-5553.599618 0 16.79570847)
(-4931.357165 0 12.71649788)
(-4392.791061 0 9.387713124)
(-3925.38682 0 6.66966024)
(-3518.690792 0 4.456219463)
(-3163.927062 0 2.656750559)
(-2853.672535 0 1.193934529)
(-2581.657541 0 0.005626509645)
(-2342.688786 0 -0.9571649929)
(-2132.604967 0 -1.738666489)
(-1948.484596 0 -2.371330785)
(-1789.389867 0 -2.88394913)
(-25201.63531 0 -34016.00112)
(-52160.62833 0 -33208.45583)
(-82874.46417 0 -31009.38721)
(-113585.1418 0 -28303.44187)
(-140535.1995 0 -24938.8552)
(-164920.6195 0 -21144.27733)
(-185780.4685 0 -17155.80713)
(-202399.4231 0 -13247.48509)
(-214051.3058 0 -9607.789833)
(-220127.6364 0 -6408.114028)
(-220358.5543 0 -3788.607863)
(-214910.868 0 -1808.714093)
(-204430.9177 0 -439.7497091)
(-190012.5605 0 412.6926038)
(-173019.5436 0 876.8872785)
(-154817.9755 1.021184976e-10 1077.54398)
(-136567.358 0 1113.320402)
(-119120.3279 0 1053.954174)
(-103025.9648 0 949.1689767)
(-88568.92398 0 829.5771133)
(-75826.51046 0 710.4889155)
(-64751.85103 0 600.367783)
(-55223.988 0 502.6748421)
(-47082.93796 0 417.6515221)
(-40161.39632 0 345.3771398)
(-34294.73583 0 284.4186646)
(-29331.28627 0 233.3360188)
(-25136.1288 0 190.9010438)
(-21590.0253 0 155.6603937)
(-18591.26711 -9.841595743e-12 126.6364324)
(-16052.7595 0 102.7481264)
(-13900.62173 0 83.06532056)
(-12073.31046 0 66.96986001)
(-10518.77977 0 53.79356092)
(-9193.145067 0 43.00250441)
(-8060.143617 0 34.16425557)
(-7089.625471 0 26.96221278)
(-6256.128954 0 21.08190003)
(-5538.386804 0 16.27978603)
(-4918.701484 0 12.35772305)
(-4382.256754 0 9.153705218)
(-3916.633469 0 6.534912316)
(-3511.434103 0 4.403826302)
(-3157.908402 0 2.667405025)
(-2848.683766 0 1.253102515)
(-2577.52886 0 0.1018825431)
(-2339.273386 0 -0.8329705847)
(-2129.779606 0 -1.593866501)
(-1946.149444 0 -2.21177518)
(-1787.448488 0 -2.714112874)
(-26281.45084 0 -36575.73693)
(-55174.51427 5.72803201e-09 -35680.55305)
(-87433.69413 0 -33266.48587)
(-119310.1358 0 -30306.81692)
(-147361.1025 0 -26616.84574)
(-172442.905 8.72492374e-10 -22488.12409)
(-193526.4706 -7.590816911e-10 -18151.74673)
(-209891.6308 0 -13914.83896)
(-220911.2158 0 -10027.30148)
(-226042.5508 5.645090647e-10 -6660.588962)
(-225102.9663 -5.251101735e-10 -3931.919351)
(-218410.1971 0 -1886.741265)
(-206782.7657 0 -484.4798523)
(-191430.6138 0 385.8968401)
(-173748.9263 0 860.0501946)
(-155080.4418 1.021184976e-10 1064.421894)
(-136536.7881 9.861157192e-11 1099.263162)
(-118927.6318 0 1037.673554)
(-102761.4169 0 932.5964573)
(-88282.48469 0 813.3303865)
(-75546.87035 0 694.4734438)
(-64494.62866 0 585.4144695)
(-54993.99369 0 488.9145621)
(-46881.55575 0 405.3910033)
(-39987.79035 0 334.5820984)
(-34146.3044 0 274.9249879)
(-29205.36674 0 225.2595677)
(-25029.65502 0 184.0822328)
(-21500.38559 0 149.9532278)
(-18516.16352 0 121.917989)
(-15989.79291 0 98.87966103)
(-13847.97929 0 79.9261964)
(-12029.4491 0 64.44617003)
(-10482.19409 0 51.78104342)
(-9162.630791 4.818700871e-12 41.40388147)
(-8034.752128 0 32.93143943)
(-7068.520978 0 26.02204472)
(-6238.567891 -2.403668045e-12 20.37893198)
(-5523.770572 0 15.76905529)
(-4906.531832 0 12.00158275)
(-4372.122655 1.206414697e-12 8.919185271)
(-3908.208886 1.209402773e-12 6.403839578)
(-3504.439597 0 4.352867922)
(-3152.097825 0 2.678948589)
(-2843.858503 -1.222328066e-12 1.313142289)
(-2573.526973 0 0.1991463342)
(-2335.954579 0 -0.7075776169)
(-2127.026083 0 -1.447643995)
(-1943.866238 0 -2.050563667)
(-1785.544218 -6.278896109e-13 -2.542406446)
(-27488.94975 0 -39205.21359)
(-58497.04172 0 -38198.84165)
(-92428.43744 0 -35552.87123)
(-125573.5473 0 -32302.26012)
(-154795.4011 0 -28263.90189)
(-180601.5305 0 -23772.87941)
(-201921.1327 0 -19097.14149)
(-217958.022 0 -14533.77583)
(-228188.7934 -6.136491728e-10 -10384.71177)
(-232216.9646 0 -6846.117754)
(-229994.0807 0 -4021.762904)
(-221992.0417 0 -1928.851149)
(-209181.4526 0 -503.2658464)
(-192871.8906 0 376.2393693)
(-174485.9703 0 851.6229214)
(-155340.397 1.021184976e-10 1053.43578)
(-136500.8245 0 1083.247603)
(-118732.3182 0 1019.96617)
(-102496.5244 0 914.6771029)
(-87997.27204 0 795.2118076)
(-75269.56413 0 677.4080707)
(-64240.25013 0 569.7287672)
(-54767.57675 0 474.4831748)
(-46684.34685 0 392.680773)
(-39818.09325 0 323.5229262)
(-34001.66267 0 265.3698581)
(-29083.158 0 217.1493723)
(-24926.54777 0 177.235979)
(-21413.76246 0 144.2695033)
(-18443.71266 -9.841595743e-12 117.2255896)
(-15929.14813 -4.890584352e-12 95.01641317)
(-13797.35011 0 76.80596247)
(-11987.30176 0 61.93956736)
(-10447.03318 -4.830039681e-12 49.78286479)
(-9133.345713 0 39.82108876)
(-8010.423844 0 31.70669747)
(-7048.283933 0 25.08620305)
(-6221.722736 0 19.67791871)
(-5509.743467 0 15.25863381)
(-4894.838125 0 11.64473008)
(-4362.387473 0 8.68516058)
(-3900.119147 0 6.272654762)
(-3497.708264 0 4.30197395)
(-3146.495759 0 2.690976191)
(-2839.19751 0 1.374169015)
(-2569.652882 0 0.2978468241)
(-2332.733479 0 -0.5804916642)
(-2124.345532 0 -1.299150706)
(-1941.636042 0 -1.886728692)
(-1783.677982 0 -2.367834738)
(-28852.86564 1.676159064e-08 -41883.62456)
(-62155.56489 0 -40748.82412)
(-97918.64177 0 -37860.83509)
(-132448.8912 0 -34278.46059)
(-162913.7462 1.037132521e-09 -29859.64019)
(-189418.6503 0 -24966.8653)
(-210920.0918 0 -19956.64581)
(-226572.392 0 -15090.36237)
(-235888.1565 6.136491728e-10 -10687.07746)
(-238658.5929 0 -6978.67608)
(-235025.854 0 -4062.641673)
(-225636.5118 0 -1930.614585)
(-211600.678 2.331079767e-10 -494.7279449)
(-194311.6506 -2.218936483e-10 382.3923577)
(-175212.2046 0 850.7172735)
(-155585.8038 0 1042.571422)
(-136455.1992 0 1065.941158)
(-118535.3062 0 1000.897001)
(-102231.0083 0 895.4791861)
(-87712.95362 0 775.825261)
(-74995.89303 0 659.2856968)
(-63989.58525 -4.341488838e-11 553.2798558)
(-54545.16289 0 459.65738)
(-46491.68507 0 379.6806287)
(-39652.79597 0 312.2063848)
(-33861.14794 0 255.7388878)
(-28964.64127 0 209.0027008)
(-24826.8335 0 170.3382083)
(-21330.23195 0 138.5781402)
(-18373.86935 -9.841595743e-12 112.5375332)
(-15870.81297 0 91.1493248)
(-13748.77684 0 73.69011854)
(-11946.86965 0 59.43542728)
(-10413.32389 0 47.78628238)
(-9105.286197 0 38.24697431)
(-7987.123363 0 30.48147614)
(-7028.904271 0 24.14735991)
(-6205.589195 0 18.97303085)
(-5496.303843 -2.405189498e-12 14.74339354)
(-4883.631213 0 11.28004976)
(-4353.054538 1.206414697e-12 8.450372178)
(-3892.356657 0 6.139809671)
(-3491.241327 -1.213068337e-12 4.249960244)
(-3141.105249 0 2.702861554)
(-2834.703669 -1.222328066e-12 1.436075238)
(-2565.908331 -1.227877028e-12 0.3982648518)
(-2329.612308 0 -0.4513097713)
(-2121.740576 0 -1.14753683)
(-1939.460241 0 -1.719241411)
(-1781.850638 0 -2.189290223)
(-30388.51655 0 -44508.1677)
(-66168.52386 0 -43241.56512)
(-103940.9531 -3.532174906e-09 -40097.79554)
(-139991.0908 0 -36159.42722)
(-171771.4277 0 -31353.28839)
(-198930.5985 0 -26049.50828)
(-220512.1564 0 -20676.59388)
(-235703.3218 0 -15535.20664)
(-243987.3119 0 -10909.19309)
(-245347.4508 0 -7047.885417)
(-240178.354 0 -4053.624768)
(-229318.4307 0 -1896.474695)
(-214015.1601 0 -462.711441)
(-195732.3478 0 401.9638213)
(-175911.8508 0 853.7107699)
(-155809.4377 1.021184976e-10 1031.283778)
(-136400.8936 0 1048.604928)
(-118335.7142 0 981.4019272)
(-101965.3646 0 874.7786017)
(-87430.40506 0 755.672732)
(-74725.79507 0 640.518617)
(-63743.4196 0 536.0323562)
(-54327.51393 0 444.472816)
(-46303.5473 0 366.45631)
(-39491.97972 0 300.670795)
(-33725.00867 0 245.9751352)
(-28849.89905 0 200.7820168)
(-24730.56921 0 163.4281803)
(-21249.87502 0 132.8697362)
(-18306.68873 -9.841595743e-12 107.8401589)
(-15814.8006 0 87.30058602)
(-13702.23526 0 70.57731949)
(-11908.14306 0 56.92765856)
(-10381.05917 0 45.76891655)
(-9078.448445 0 36.66314928)
(-7964.848616 0 29.24730683)
(-7010.380942 0 23.1988404)
(-6190.165452 0 18.25832482)
(-5483.4397 0 14.21918393)
(-4872.914923 0 10.90830061)
(-4344.142023 -1.206414697e-12 8.20974168)
(-3884.927798 0 6.002728894)
(-3485.04319 0 4.1953836)
(-3135.93077 0 2.713835754)
(-2830.381213 1.222328066e-12 1.498622713)
(-2562.296299 0 0.5007408381)
(-2326.59446 0 -0.3187390245)
(-2119.214873 0 -0.9918600287)
(-1937.340956 0 -1.547121263)
(-1780.063625 0 -2.00573423)
(-32089.2045 0 -46950.82978)
(-70551.13336 0 -45544.97105)
(-110527.8342 0 -42159.87121)
(-148197.5651 2.593832687e-09 -37861.91035)
(-181342.7519 -1.037132521e-09 -32665.33811)
(-209172.6621 0 -26962.18014)
(-230703.2196 -7.590816911e-10 -21205.36796)
(-245268.0522 0 -15803.3072)
(-252414.9282 6.136491728e-10 -11010.68341)
(-252243.3417 0 -7037.962142)
(-245415.7719 0 -3990.206309)
(-233008.4683 0 -1825.364761)
(-216402.9788 0 -407.4084773)
(-197109.5417 0 431.0008259)
(-176570.7527 0 857.9339241)
(-156010.0628 1.021184976e-10 1021.574757)
(-136336.8729 1.972231438e-10 1032.361491)
(-118130.9775 0 961.9037359)
(-101698.4002 0 853.1534206)
(-87150.77577 0 734.7713156)
(-74459.23721 0 621.2421325)
(-63501.71265 0 518.3011396)
(-54115.3101 0 428.9222386)
(-46120.3112 0 352.9866141)
(-39335.80848 0 289.0490539)
(-33593.38448 0 236.13049)
(-28739.17877 -1.009620547e-11 192.4942788)
(-24637.85327 0 156.5204855)
(-21172.6197 -9.913505491e-12 127.1443617)
(-18242.21911 0 103.1190908)
(-15761.13209 0 83.44739744)
(-13657.684 0 67.4507265)
(-11871.05821 0 54.40407143)
(-10350.22855 0 43.7343435)
(-9052.873334 0 35.06240004)
(-7943.601706 0 27.99607653)
(-6992.712155 0 22.23354106)
(-6175.455749 0 17.52697799)
(-5471.172508 0 13.67702933)
(-4862.696303 0 10.52868808)
(-4335.641847 0 7.960432382)
(-3877.838068 0 5.858741174)
(-3479.121715 0 4.136307392)
(-3130.97989 0 2.722726539)
(-2826.237277 0 1.561328216)
(-2558.824527 0 0.6054337129)
(-2323.684476 0 -0.1819167398)
(-2116.769798 0 -0.8310894129)
(-1935.279971 0 -1.369081697)
(-1778.318149 0 -1.815641017)
(-33980.67352 0 -49126.8588)
(-75268.52754 0 -47565.35565)
(-117632.0542 0 -43966.91524)
(-157082.7815 0 -39325.12844)
(-191635.8256 0 -33727.4566)
(-220131.2994 0 -27647.58699)
(-241496.2992 0 -21530.05038)
(-255209.8978 0 -15858.86035)
(-261052.7834 0 -10933.37233)
(-259255.926 0 -6913.319031)
(-250688.913 0 -3859.467252)
(-236671.8931 0 -1716.078574)
(-218728.1044 0 -336.1449623)
(-198420.7051 0 464.4465734)
(-177186.3709 0 865.7124376)
(-156188.5581 1.021184976e-10 1015.160786)
(-136260.5446 0 1017.907992)
(-117919.0055 0 942.1041165)
(-101429.614 0 831.4336028)
(-86873.9167 0 713.6001229)
(-74196.88924 0 601.5511175)
(-63264.86733 0 500.4994401)
(-53908.47651 0 413.256682)
(-45942.32519 0 339.3148353)
(-39184.54369 0 277.4036646)
(-33466.18748 0 226.2613087)
(-28632.46364 0 184.1095223)
(-24548.72234 0 149.573304)
(-21098.4647 0 121.3912389)
(-18180.44975 -9.841595743e-12 98.34206213)
(-15709.81409 0 79.56032339)
(-13615.13065 0 64.29206101)
(-11835.66848 0 51.85154362)
(-10320.83914 0 41.68730147)
(-9028.52043 0 33.43734287)
(-7923.381018 0 26.71946858)
(-6975.901081 0 21.24426057)
(-6161.451853 0 16.77368406)
(-5459.51145 0 13.11445489)
(-4853.000063 0 10.13303906)
(-4327.565627 0 7.698368631)
(-3871.09714 0 5.705138173)
(-3473.48684 0 4.070820411)
(-3126.262542 0 2.728374737)
(-2822.281189 0 1.623764929)
(-2555.50125 0 0.7124893544)
(-2320.889192 0 -0.04056929473)
(-2114.410733 0 -0.6641782725)
(-1933.281449 0 -1.183845381)
(-1776.617488 0 -1.617784079)
(-36079.05375 0 -50916.89271)
(-80320.29068 0 -49181.30288)
(-125226.9876 0 -45398.46826)
(-166627.8853 0 -40411.85726)
(-202615.9352 0 -34435.00533)
(-231735.214 0 -28015.64464)
(-252864.0664 0 -21603.38283)
(-265532.91 0 -15696.98354)
(-269825.1304 0 -10661.68687)
(-266254.8496 0 -6641.155965)
(-255893.0395 0 -3638.176641)
(-240237.7479 0 -1559.570473)
(-220956.1736 0 -241.2971566)
(-199662.4527 -2.218936483e-10 513.3607955)
(-177758.8475 0 884.9879844)
(-156340.0341 1.021184976e-10 1015.544289)
(-136166.302 0 1006.545346)
(-117697.6654 0 923.1939934)
(-101159.5598 0 810.4277826)
(-86599.21062 0 692.9246315)
(-73938.59598 0 581.7439544)
(-63033.206 0 482.6928376)
(-53706.7516 0 397.5862008)
(-45769.49132 0 325.5373905)
(-39038.38241 0 265.6870029)
(-33343.30476 0 216.3463871)
(-28529.73632 0 175.7014646)
(-24463.3305 0 142.5937851)
(-21027.36244 0 115.6051838)
(-18121.37622 -9.841595743e-12 93.54199074)
(-15660.90935 0 75.64390886)
(-13574.58255 0 61.09898168)
(-11801.98118 0 49.25273743)
(-10292.89682 0 39.60504772)
(-9005.389701 0 31.77803483)
(-7904.189353 0 25.40927722)
(-6959.955898 0 20.22262837)
(-6148.17394 0 15.98998655)
(-5448.467733 0 12.53015334)
(-4843.828181 0 9.715731761)
(-4319.924565 0 7.417962882)
(-3864.718322 0 5.53732641)
(-3468.152143 0 3.995422212)
(-3121.791876 0 2.728352145)
(-2818.525076 0 1.684549559)
(-2552.336919 -1.227877028e-12 0.8215226838)
(-2318.216766 0 0.1058414169)
(-2112.143092 0 -0.4897547822)
(-1931.347901 0 -0.9892855255)
(-1774.962017 0 -1.409306207)
(-38415.3375 0 -52107.70577)
(-85672.48208 0 -50172.19084)
(-133297.3169 0 -46291.3409)
(-176810.3401 0 -40970.47421)
(-214208.199 0 -34660.77016)
(-243861.2691 0 -27945.18526)
(-264649.0742 0 -21342.42232)
(-276124.744 0 -15299.6654)
(-278668.9129 0 -10213.20568)
(-273162.8214 0 -6231.641417)
(-260930.3923 0 -3320.062043)
(-243639.9621 0 -1341.208601)
(-223055.737 0 -104.730649)
(-200812.5032 -2.218936483e-10 590.1211734)
(-178269.0328 0 920.8655172)
(-156450.7137 1.021184976e-10 1025.012755)
(-136046.4321 0 998.3504662)
(-117463.7122 0 906.3339959)
(-100886.7534 0 790.6739108)
(-86325.2596 0 672.8967958)
(-73683.32822 0 562.3181734)
(-62806.67739 0 465.0237539)
(-53510.13564 0 381.9469799)
(-45601.7431 0 311.8537017)
(-38897.28507 0 253.9763882)
(-33224.9779 0 206.4062822)
(-28431.04918 0 167.3396468)
(-24381.49726 0 135.6002899)
(-20959.38744 0 109.7910007)
(-18065.01251 -9.841595743e-12 88.74067347)
(-15614.32165 0 71.69915286)
(-13535.98112 0 57.86962973)
(-11769.98773 0 46.60799858)
(-10266.4327 0 37.48290819)
(-8983.486339 0 30.07976364)
(-7886.030088 0 24.0611197)
(-6944.878954 0 19.1640541)
(-6135.637894 0 15.16762209)
(-5438.059646 0 11.91634185)
(-4835.190659 0 9.271976646)
(-4312.733985 0 7.115061979)
(-3858.71885 0 5.351610413)
(-3463.135552 0 3.907087198)
(-3117.585786 0 2.720505482)
(-2814.986091 0 1.742522144)
(-2549.347265 0 0.9323792412)
(-2315.681015 0 0.2580424989)
(-2109.978687 0 -0.3065117673)
(-1929.489622 0 -0.784004994)
(-1773.360852 0 -1.1893191)
(-41024.55307 0 -52390.53997)
(-91214.87066 0 -50222.50065)
(-141706.2351 0 -46356.76976)
(-187544.8491 0 -40777.03058)
(-226325.2596 0 -34248.2425)
(-256352.3367 0 -27331.59097)
(-276626.7709 0 -20652.82884)
(-286799.3773 0 -14607.68481)
(-287457.104 0 -9563.710955)
(-279897.7417 0 -5685.46482)
(-265745.9407 0 -2907.588673)
(-246831.7503 0 -1057.620503)
(-224987.0395 0 74.0479605)
(-201839.406 0 692.6104159)
(-178695.2905 0 972.0680624)
(-156504.5431 1.021184976e-10 1042.130078)
(-135892.9691 0 994.1197305)
(-117215.979 0 892.4171765)
(-100609.3855 0 772.8507785)
(-86051.39062 0 653.4467454)
(-73430.8686 0 543.6023854)
(-62584.46774 0 447.8115907)
(-53318.52634 0 366.4068139)
(-45439.07377 0 298.3559692)
(-38760.98072 0 242.3641554)
(-33111.07865 0 196.4202307)
(-28336.37365 0 158.9664792)
(-24303.19818 0 128.5873695)
(-20894.50348 0 103.9033984)
(-18011.34123 -9.841595743e-12 83.88616271)
(-15570.04491 0 67.70009447)
(-13499.332 0 54.58647264)
(-11739.68647 0 43.92074781)
(-10241.43715 0 35.30868154)
(-8962.811256 0 28.3285231)
(-7868.90639 0 22.6614101)
(-6930.665447 0 18.05687055)
(-6123.853376 0 14.3016759)
(-5428.310425 0 11.26138269)
(-4827.102016 0 8.791121247)
(-4306.008967 0 6.7799661)
(-3853.116128 0 5.139294886)
(-3458.456345 0 3.79832605)
(-3113.664441 0 2.69881995)
(-2811.684019 0 1.793413989)
(-2546.550098 0 1.042766082)
(-2313.295893 0 0.415882802)
(-2107.925619 0 -0.1123371004)
(-1927.707357 0 -0.5634645878)
(-1771.809103 0 -0.9505536071)
(-43954.96773 0 -51273.09041)
(-96867.08667 1.145606402e-08 -48871.67549)
(-150268.8263 0 -45209.0721)
(-198572.5578 0 -39498.0806)
(-238677.8076 0 -32939.39296)
(-268975.4215 8.72492374e-10 -26009.24651)
(-288551.5027 -7.590816911e-10 -19383.56527)
(-297309.8972 0 -13517.595)
(-296010.4046 0 -8666.135412)
(-286331.0714 0 -4977.353361)
(-270250.7564 -2.625550867e-10 -2388.668626)
(-249752.5235 2.464598854e-10 -705.6514998)
(-226707.0856 0 296.0083172)
(-202717.3099 0 822.1677947)
(-179019.8963 0 1038.335246)
(-156492.5128 1.021184976e-10 1066.445555)
(-135703.3578 9.861157192e-11 995.822456)
(-116950.9305 9.557346841e-11 882.7182203)
(-100323.6721 0 757.5764384)
(-85775.42977 0 635.4218803)
(-73181.11747 0 525.7983502)
(-62365.86253 0 431.2473088)
(-53131.36198 0 351.2377061)
(-45281.47903 0 285.0856876)
(-38629.12603 0 230.897261)
(-33001.44996 0 186.5264482)
(-28245.80865 0 150.6377176)
(-24228.28226 0 121.5865767)
(-20832.65469 0 98.0039942)
(-17960.43401 0 79.00884041)
(-15528.0835 0 63.66578772)
(-13464.66553 0 51.25577267)
(-11711.08324 0 41.19665321)
(-10217.88762 0 33.08950098)
(-8943.365359 4.818700871e-12 26.53026291)
(-7852.829288 0 21.2135057)
(-6917.346578 0 16.89838464)
(-6112.835668 -2.403668045e-12 13.3958077)
(-5419.219115 0 10.56525785)
(-4819.579016 0 8.271527248)
(-4299.771797 1.206414697e-12 6.410128793)
(-3847.935408 0 4.897304385)
(-3454.142355 1.213068337e-12 3.665955341)
(-3110.057858 0 2.660508382)
(-2808.650283 -1.222328066e-12 1.835336954)
(-2543.977229 0 1.15203765)
(-2311.092744 0 0.5799289929)
(-2106.014717 -1.240717983e-12 0.09390493357)
(-1926.032711 0 -0.3273990864)
(-1770.338364 -6.278896109e-13 -0.6956629794)
(-47160.48916 0 -48016.84176)
(-102316.6881 0 -45478.6972)
(-158630.6906 0 -42380.58303)
(-209576.396 0 -36787.54942)
(-250871.2905 0 -30431.8984)
(-281385.0935 0 -23749.1057)
(-300078.0324 0 -17378.28138)
(-307269.8882 0 -11873.66136)
(-304052.0107 0 -7413.110447)
(-292311.7416 5.645090647e-10 -4049.950864)
(-274345.2495 0 -1727.949486)
(-252333.0002 0 -259.9772981)
(-228172.4734 0 580.172632)
(-203411.993 -2.218936483e-10 990.1978867)
(-179217.3901 0 1126.029157)
(-156403.6986 1.021184976e-10 1105.378013)
(-135473.3612 0 1008.135484)
(-116664.277 0 880.339354)
(-100026.8482 0 746.5350804)
(-85495.65528 0 620.6763734)
(-72932.28701 0 510.1245241)
(-62150.22806 0 415.992136)
(-52948.14392 0 337.0882932)
(-45128.38252 0 272.4287544)
(-38501.70956 0 219.7976133)
(-32895.97809 0 176.9435092)
(-28159.03678 0 142.4529362)
(-24156.74423 0 114.6501823)
(-20773.79835 0 92.16429021)
(-17912.15128 -9.841595743e-12 74.12902952)
(-15488.36013 0 59.59818832)
(-13431.94776 0 47.85895371)
(-11684.17916 0 38.40948261)
(-10195.77524 0 30.80332268)
(-8925.137488 0 24.66227233)
(-7837.773787 0 19.69496272)
(-6904.919188 0 15.66759467)
(-6102.6029 0 12.42238926)
(-5410.790914 0 9.804791652)
(-4812.62739 0 7.691219091)
(-4294.032465 -1.206414697e-12 5.984278543)
(-3843.191811 0 4.605316121)
(-3450.213954 0 3.491095957)
(-3106.791104 0 2.588843935)
(-2805.91289 1.222328066e-12 1.854663473)
(-2541.656047 0 1.250847368)
(-2309.092569 0 0.7464975088)
(-2104.25278 0 0.3157629875)
(-1924.450672 0 -0.06314019419)
(-1768.916086 0 -0.400563474)
(-50440.2663 0 -42190.81115)
(-106980.9072 0 -39474.44551)
(-166101.8386 0 -37266.79241)
(-220016.5197 0 -32153.27331)
(-262399.6371 0 -26370.20494)
(-293078.4657 0 -20316.44654)
(-310830.377 7.590816911e-10 -14522.67109)
(-316333.7961 0 -9564.21555)
(-311210.1244 0 -5670.458833)
(-297570.0646 0 -2810.583611)
(-277876.4084 0 -874.2497179)
(-254479.0979 0 309.8186015)
(-229310.7933 0 942.7229395)
(-203870.6038 -2.218936483e-10 1207.321518)
(-179261.7232 0 1248.486114)
(-156225.1007 1.021184976e-10 1170.954939)
(-135190.6964 0 1039.371707)
(-116345.5712 0 890.7857179)
(-99712.28044 9.292980586e-11 744.1385719)
(-85208.72964 4.531075074e-11 612.1706119)
(-72681.36394 0 498.929575)
(-61935.4595 0 403.6457797)
(-52767.59782 2.131899682e-11 325.1395934)
(-44978.68122 0 261.3584254)
(-38377.95541 -2.067999104e-11 209.7063303)
(-32794.17137 0 168.131382)
(-28075.70564 0 134.8244381)
(-24088.3583 0 108.0733685)
(-20717.78422 0 86.60265634)
(-17866.36509 0 69.44226686)
(-15450.76435 4.890584352e-12 55.66424069)
(-13401.125 0 44.55919329)
(-11658.97005 0 35.67920425)
(-10175.0882 4.830039681e-12 28.54683561)
(-8908.127328 0 22.804329)
(-7823.75651 0 18.17317873)
(-6893.396957 0 14.4282407)
(-6093.163624 0 11.4276073)
(-5403.044055 0 9.015899591)
(-4806.270522 0 7.078017746)
(-4288.819146 0 5.523030904)
(-3838.91928 1.209402773e-12 4.277529861)
(-3446.712283 0 3.282523959)
(-3103.913994 0 2.488446421)
(-2803.531601 0 1.853326102)
(-2539.657255 0 1.339793121)
(-2307.378081 0 0.9154112936)
(-2102.736997 0 0.5509910926)
(-1923.077748 -6.239889687e-13 0.220645801)
(-1767.669519 0 -0.08764837403)
(-54101.16642 0 -31265.26542)
(-110818.5336 0 -29296.40589)
(-172157.9877 -3.532174906e-09 -28600.31956)
(-229127.5725 0 -24432.18569)
(-272403.1256 0 -19725.19957)
(-303263.9952 0 -14802.1416)
(-320244.1949 0 -10094.26481)
(-324155.7833 0 -6083.536316)
(-317165.1192 -6.136491728e-10 -3043.036827)
(-301789.6467 5.645090647e-10 -928.4100695)
(-280619.8947 0 419.5535892)
(-256049.6451 0 1173.460672)
(-230037.5446 0 1503.115071)
(-204053.3638 -2.218936483e-10 1562.713995)
(-179130.2533 0 1470.780633)
(-155934.4536 1.021184976e-10 1306.883423)
(-134836.3756 0 1119.265195)
(-115981.6024 0 933.8259529)
(-99371.18668 0 764.9719651)
(-84908.02522 0 619.9862986)
(-72423.22457 0 499.1478522)
(-61718.03124 0 399.3514476)
(-52587.64577 0 318.8299769)
(-44830.39536 0 254.2577892)
(-38256.50716 0 202.4181733)
(-32695.30856 0 161.2771539)
(-27995.04333 0 128.5547395)
(-24022.58059 0 102.418046)
(-20664.28933 0 81.6721786)
(-17822.78675 -9.841595743e-12 65.16994227)
(-15415.12474 -9.781168704e-12 51.9916348)
(-13372.02014 0 41.43299492)
(-11635.25455 0 33.03326179)
(-10155.69258 -4.830039681e-12 26.3181772)
(-8892.230874 0 20.93415101)
(-7810.700991 0 16.60512456)
(-6882.706036 0 13.13522685)
(-6084.442833 0 10.36508159)
(-5395.920959 0 8.150351085)
(-4800.460808 0 6.382834845)
(-4284.09345 0 4.977229604)
(-3835.090104 0 3.865215894)
(-3443.622426 0 2.99246662)
(-3101.425942 0 2.313554795)
(-2801.51909 0 1.789781647)
(-2538.000036 0 1.385628409)
(-2305.958902 0 1.068307435)
(-2101.439529 0 0.8055420935)
(-1921.815344 0 0.5665892079)
(-1766.440057 0 0.33650237)
(-55470.96555 0 -24248.14837)
(-111248.4619 0 -21556.2423)
(-175453.6399 0 -21678.77049)
(-235939.5276 0 -17749.18027)
(-279916.6137 -2.074265041e-09 -13507.66835)
(-310863.4905 0 -9221.416571)
(-327180.2676 -7.590816911e-10 -5353.446559)
(-329772.3954 0 -2201.918131)
(-321207.3757 6.136491728e-10 25.69346966)
(-304404.348 -5.645090647e-10 1396.689514)
(-282096.2066 0 2110.368331)
(-256688.5685 0 2365.218064)
(-230112.0234 0 2327.682182)
(-203791.1164 0 2126.632021)
(-178697.6817 0 1852.458348)
(-155440.4813 1.021184976e-10 1562.734595)
(-134344.0195 1.972231438e-10 1288.350895)
(-115527.1692 0 1043.150096)
(-98974.14726 0 835.5702417)