/*--------------------------------*- C++ -*----------------------------------*\
  =========                 |
  \\      /  F ield         | OpenFOAM: The Open Source CFD Toolbox
   \\    /   O peration     | Website:  https://openfoam.org
    \\  /    A nd           | Version:  7
     \\/     M anipulation  |
\*---------------------------------------------------------------------------*/
FoamFile
{
    version     2.0;
    format      ascii;
    class       volTensorField;
    location    "0.0024";
    object      grad(U);
}
// * * * * * * * * * * * * * * * * * * * * * * * * * * * * * * * * * * * * * //

dimensions      [0 0 -1 0 0 0 0];

internalField   nonuniform List<tensor> 
1167
(
(-0.2538028865 -1.444790843e-12 0.1394491987 -3.405825048e-12 -0.4141759242 0 -0.008428116661 -1.964712732e-13 1.322160951)
(-0.3390468268 -1.205324479e-12 0.3283738593 1.35201256e-13 -0.3627599531 0 -0.02198644701 -6.807981829e-13 1.324035043)
(-0.3381311884 -4.132610316e-13 0.5414806189 3.419072656e-13 -0.3480533903 6.898779112e-12 -0.03465617354 -2.803926366e-13 1.327952331)
(-0.351144055 -1.328861706e-13 0.7689461686 3.085905339e-13 -0.3473030861 0 -0.04746089196 -1.910504208e-13 1.333613498)
(-0.3591607919 -4.140795796e-13 1.016772157 2.532061818e-13 -0.3488182029 0 -0.05994831283 6.636771229e-15 1.340867706)
(-0.3673146307 -6.1685904e-13 1.29273128 3.361577216e-13 -0.3511139937 0 -0.07194669515 2.281141643e-15 1.349516431)
(-0.3767198169 -2.131425715e-13 1.60708431 3.619583564e-13 -0.353992495 0 -0.08344083302 1.253533999e-13 1.359275493)
(-0.3871989515 7.937500354e-16 1.972973332 3.089930296e-13 -0.357364993 0 -0.09446711472 2.360046742e-14 1.369839713)
(-0.3983564788 -2.082679714e-13 2.407665681 2.826619629e-13 -0.3611433789 2.397067081e-12 -0.1049199145 -1.086838205e-13 1.380930708)
(-0.4099015395 -2.02211184e-13 2.933508532 2.874830633e-13 -0.3652334701 0 -0.1147976631 1.392477366e-13 1.392192023)
(-0.4217015997 -7.633044932e-14 3.579317978 2.6842027e-13 -0.3695622838 0 -0.1241568123 1.800365227e-13 1.403175057)
(-0.4335491065 -1.502435492e-14 4.381798816 2.547860296e-13 -0.3740736682 0 -0.1330577829 6.311168134e-14 1.413426708)
(-0.4450918405 -8.086493161e-14 5.38674494 2.320906903e-13 -0.3787073799 0 -0.1415871531 -2.504984296e-14 1.422514431)
(-0.4559275574 -3.019636487e-13 6.65009464 2.310827865e-13 -0.3833950568 1.733544128e-12 -0.1498504701 -1.356119498e-13 1.430025612)
(-0.4656926898 -4.111154944e-13 8.238946371 2.406173117e-13 -0.3880631844 0 -0.1579459102 -1.396374905e-13 1.435517656)
(-0.4740942013 -2.737464215e-13 10.23267471 2.493127384e-13 -0.3926401998 0 -0.1659416688 -1.932862956e-13 1.438467152)
(-0.4807703459 -1.702072154e-13 12.72418611 2.437602944e-13 -0.3970594047 0 -0.1738743305 -2.231907832e-13 1.438248466)
(-0.2361484069 -2.444313178e-13 0.1369760909 8.841757605e-13 -0.3852937695 -6.547496343e-11 -0.008724623127 1.331560724e-12 1.274038543)
(-0.3156835331 -2.292303848e-13 0.3227647185 5.134916391e-13 -0.3375022779 0 -0.02274127686 5.841243628e-13 1.276028428)
(-0.3153760389 -5.136865865e-14 0.5326159594 3.705398937e-13 -0.3239720266 -6.898779112e-12 -0.03579448324 4.753810927e-13 1.280180372)
(-0.3281945994 -4.101403098e-13 0.7568960859 2.591171016e-13 -0.323537101 0 -0.04903972239 3.077474022e-13 1.286194308)
(-0.3365198889 -5.481684337e-13 1.001722742 3.699184062e-13 -0.3252513012 -4.051298909e-12 -0.06200193786 3.603781305e-13 1.293958628)
(-0.3451755037 -2.641573556e-13 1.275015042 3.669444436e-13 -0.3277539644 0 -0.07447813669 8.297500198e-14 1.303189883)
(-0.3550794793 -5.885075261e-14 1.58718805 3.409647717e-13 -0.3308536357 0 -0.08641099653 -5.756462973e-14 1.313662124)
(-0.3661180176 1.240984083e-13 1.951457528 2.902857272e-13 -0.3344465706 0 -0.09785856542 -2.12500407e-14 1.324983134)
(-0.3779694748 -3.207699382e-13 2.385108147 2.381851323e-13 -0.338464089 0 -0.1087985634 -6.12472069e-15 1.336817572)
(-0.3902470879 -5.786305346e-13 2.910670545 2.917899257e-13 -0.3428146492 2.205113534e-12 -0.1191848832 -9.79410538e-14 1.348793187)
(-0.4027002192 -2.430886156e-13 3.557128004 3.004704514e-13 -0.3474173722 0 -0.1290381676 -4.544730531e-14 1.360461399)
(-0.4150366595 2.467119537e-14 4.361253775 2.848714648e-13 -0.352200823 0 -0.1384267812 -6.160640075e-15 1.371340495)
(-0.4268975049 1.430758727e-13 5.368874823 2.525431266e-13 -0.3570914636 -1.821156068e-12 -0.1474328722 7.899893003e-14 1.380944042)
(-0.4379152314 -1.219261927e-14 6.635999048 2.285434153e-13 -0.3620136787 1.733544128e-12 -0.1561330699 2.377073961e-14 1.388792542)
(-0.4477424603 -8.855737366e-14 8.22987362 2.227938072e-13 -0.3668913957 0 -0.1645891382 -6.453295769e-14 1.394395433)
(-0.4561034588 -9.77073421e-14 10.2300941 2.126949299e-13 -0.3716508615 0 -0.1728419596 -1.644727926e-13 1.397216795)
(-0.4625430982 -2.498260887e-13 12.72979472 2.099046979e-13 -0.3762260085 0 -0.1809636831 -1.326745055e-13 1.396669723)
(-0.4662730619 -2.924147606e-13 15.83714875 2.165628061e-13 -0.3805344162 0 -0.1890878538 -1.399677081e-13 1.392120454)
(-0.4666215275 -2.13245042e-13 19.67734219 2.176624329e-13 -0.384472752 0 -0.1972509077 -1.683531138e-13 1.382725846)
(-0.4628718521 -1.480027706e-13 24.3942804 2.157128026e-13 -0.3879421684 0 -0.2053846495 -1.726732222e-13 1.367483329)
(-0.4538843181 -8.946466537e-14 30.15196425 2.129312638e-13 -0.3908270072 0 -0.2134984957 -1.660114918e-13 1.345315125)
(-0.4385628884 -8.035416091e-14 37.13614443 2.073495493e-13 -0.3929870337 1.356715262e-12 -0.2215366779 -2.003430253e-13 1.31499405)
(-0.4158074949 -7.029701608e-14 45.55535023 2.023378909e-13 -0.3942792573 0 -0.2293585879 -1.728369553e-13 1.275249593)
(-0.3843804692 -3.443495072e-14 55.64141451 1.971841385e-13 -0.3945454344 0 -0.2368382186 -1.239188285e-13 1.224867503)
(-0.3432289162 -3.489926973e-14 67.64973915 1.912242824e-13 -0.3936206422 0 -0.2437616286 -8.661625343e-14 1.162674809)
(-0.2913804677 -5.701684113e-14 81.85877264 1.86321305e-13 -0.3913431452 0 -0.249941133 -9.167814476e-14 1.087693872)
(-0.2281498159 9.653766645e-15 98.56924392 1.830183732e-13 -0.3875523969 0 -0.2551616226 -1.002199835e-13 0.9991393394)
(-0.1531597526 7.592205006e-14 118.102519 1.757454642e-13 -0.3821077334 0 -0.2591757447 -1.075717948e-13 0.8965695126)
(-0.06625696208 2.011038338e-13 140.7985741 1.700253322e-13 -0.3748846335 0 -0.261754056 -1.33805092e-13 0.7799413512)
(0.03222009735 2.084570614e-13 167.0133987 1.561776668e-13 -0.3657841221 1.230199468e-12 -0.2626374953 -1.412719215e-13 0.649601425)
(0.1415129026 8.889514456e-14 197.1155828 1.498457852e-13 -0.3547412527 0 -0.2616469693 -1.236805408e-13 0.5064085655)
(0.2603371672 1.227100865e-13 231.4832919 1.443301423e-13 -0.3417267642 0 -0.2586290655 -1.225533866e-13 0.3516837708)
(0.3869424043 1.849888024e-13 270.500248 1.378199792e-13 -0.3267572693 0 -0.2534291747 -1.153349466e-13 0.1873347633)
(0.5192246429 1.741947204e-13 314.5517014 1.303025842e-13 -0.3098917427 0 -0.2459848662 -1.129454105e-13 0.01578375287)
(0.6545191851 1.632897314e-13 364.0209762 1.247027081e-13 -0.2912343744 0 -0.2362881965 -1.073489023e-13 -0.1601303474)
(0.7895888374 2.282480659e-13 419.2843446 1.186378794e-13 -0.2709391438 0 -0.224372874 -1.02498783e-13 -0.33701367)
(0.9208780854 2.891650443e-13 480.7067697 1.115038787e-13 -0.2492110925 0 -0.2103622872 -1.000308205e-13 -0.5109314426)
(1.044558279 2.573532135e-13 548.6396181 1.026957783e-13 -0.2262995463 0 -0.1944456713 -1.016325835e-13 -0.6775811824)
(1.156414491 3.218144264e-13 623.4170306 9.865035051e-14 -0.2024977963 6.012973745e-13 -0.1768776727 -1.093620563e-13 -0.8324036272)
(1.251933293 4.892570183e-13 705.352148 8.819342029e-14 -0.1781411979 0 -0.1579777226 -9.873155498e-14 -0.9704544593)
(1.326371243 3.846417891e-13 794.7348574 7.775719726e-14 -0.1536036813 -6.032073484e-13 -0.138125391 -9.30403742e-14 -1.086501604)
(1.374789163 5.018470309e-13 891.8298742 7.293029417e-14 -0.1292939917 0 -0.1177540683 -9.164466706e-14 -1.175095981)
(1.392088181 5.386408145e-13 996.8754112 6.012033018e-14 -0.1056518783 0 -0.09734005758 -1.258631356e-13 -1.230620034)
(1.373131655 4.95017951e-13 1110.083156 5.438999234e-14 -0.08314408605 0 -0.07739900953 -7.910433464e-14 -1.24733844)
(1.313009926 6.294593027e-13 1231.639402 4.386773089e-14 -0.062257909 0 -0.05848490438 -7.374498176e-14 -1.219489582)
(1.207079952 5.37596387e-13 1361.706619 3.492374846e-14 -0.04349105138 3.069692569e-13 -0.0411767102 -6.272875249e-14 -1.141333787)
(1.048524048 5.191415527e-13 1500.428051 2.771708047e-14 -0.02734642034 0 -0.02606049991 -4.544792222e-14 -1.007097654)
(0.822307379 5.712505386e-13 1647.942519 2.006776522e-14 -0.01438856508 0 -0.01377920061 -3.068328211e-14 -0.8110042127)
(0.5204888091 6.160750442e-13 1804.42839 1.227297639e-14 -0.005385825508 0 -0.005159669767 -1.748161781e-14 -0.5473013281)
(0.2540052762 6.608491246e-13 1970.242497 4.167663281e-15 -0.0009593917737 0 -0.0009119058302 -5.863329452e-15 -0.2101141428)
(-0.2179526963 4.595491417e-13 0.1343647769 5.549826383e-12 -0.3554984561 0 -0.008977962735 4.3168113e-14 1.224398362)
(-0.291663132 8.804232281e-14 0.316833562 1.45375492e-12 -0.3114609983 0 -0.02338146012 9.504302466e-14 1.226481979)
(-0.2919308885 8.499900283e-14 0.5232106085 9.886678074e-13 -0.2991853066 0 -0.03677620153 1.67199096e-13 1.23085915)
(-0.3044292309 3.278158421e-14 0.7440635814 6.09760053e-13 -0.2990488163 -5.066079466e-12 -0.05044720815 3.0501544e-13 1.237256506)
(-0.3130120663 4.158317312e-14 0.9857004275 5.326231598e-13 -0.3009338004 4.051298909e-12 -0.06382800895 -7.493520239e-15 1.24550448)
(-0.3222102951 1.392260598e-13 1.256138999 3.885783564e-13 -0.303621631 0 -0.07672871826 -1.073235587e-13 1.255290312)
(-0.3326966257 -3.587134563e-14 1.565935849 3.322777712e-13 -0.3069414106 2.965162856e-12 -0.08908220338 -1.232711771e-13 1.26639835)
(-0.3442533823 -9.58654755e-14 1.928483328 2.980266799e-13 -0.3107631802 0 -0.1009087792 -3.004637247e-14 1.278460156)
(-0.3566796483 -4.882141411e-14 2.361098997 2.785654127e-13 -0.3150102435 -2.397067081e-12 -0.1122678676 1.137571352e-13 1.291050293)
(-0.3696008097 -1.357376653e-13 2.886435913 2.508747331e-13 -0.3196045144 0 -0.1231132101 -1.163864357e-13 1.303752521)
(-0.3826595997 -2.615628535e-13 3.533620356 2.533967474e-13 -0.3244602808 0 -0.1334458856 -2.433742997e-13 1.316102512)
(-0.3955161756 -2.75679101e-13 4.339541089 2.5196552e-13 -0.3294975401 0 -0.1433100547 -2.309911916e-13 1.327592437)
(-0.4077865646 -1.341782987e-13 5.350102787 2.552108357e-13 -0.334635029 0 -0.1527643244 -8.71145082e-14 1.337700603)
(-0.4190954239 8.293460957e-15 6.621373971 2.370079862e-13 -0.3397903571 0 -0.1618699789 3.504377059e-14 1.345907597)
(-0.4291420429 1.275367959e-15 8.220703463 2.227938072e-13 -0.3448830668 0 -0.1706682358 2.314599245e-14 1.351689608)
(-0.4375951477 -1.300887817e-13 10.22781691 2.095785207e-13 -0.3498410959 0 -0.179195719 6.706799176e-14 1.35451827)
(-0.4438675326 -2.234550183e-13 12.73599579 2.114093911e-13 -0.3545897079 -3.081611623e-12 -0.1875766361 6.837468639e-14 1.353870362)
(-0.4473065192 -1.667693397e-13 15.85381882 2.129169676e-13 -0.3590363336 0 -0.1959003112 -6.019136243e-15 1.349122984)
(-0.4474321183 -1.296552676e-13 19.70698776 2.09154455e-13 -0.3630854876 0 -0.2041130441 -4.969040006e-14 1.339472466)
(-0.4434959549 -7.860343127e-14 24.43973702 2.039592204e-13 -0.3666466273 0 -0.212211699 -7.432674457e-14 1.324013979)
(-0.4344256244 -1.275765626e-14 30.21649565 1.973839017e-13 -0.3696062487 0 -0.2202073078 -8.7671871e-14 1.301777812)
(-0.4192717431 -6.346146599e-14 37.22343802 1.901256251e-13 -0.3718350288 0 -0.2279768656 -9.035642605e-14 1.271643531)
(-0.3969755862 -1.200301123e-13 45.66925033 1.880245996e-13 -0.3732008071 0 -0.2354270348 -1.01136807e-13 1.232474286)
(-0.3664665336 -6.869984613e-14 55.7858164 1.850201819e-13 -0.3735550404 0 -0.2424488078 -1.035452863e-13 1.18313781)
(-0.3268041601 -2.751338959e-14 67.82840373 1.811266305e-13 -0.3727505816 0 -0.2488388985 -1.092495714e-13 1.122582072)
(-0.2770508702 9.786590806e-15 82.07519107 1.75727786e-13 -0.3706379711 0 -0.2544165773 -1.256271371e-13 1.049941571)
(-0.2166028009 3.348909823e-14 98.82637203 1.694614566e-13 -0.3670709149 6.310128422e-13 -0.2589500692 -1.602477652e-13 0.964509603)
(-0.1450979874 9.387846528e-14 118.4024207 1.641511454e-13 -0.3619211431 0 -0.2622413665 -1.428199365e-13 0.8659102139)
(-0.06247314868 8.974688458e-14 141.14229 1.56108668e-13 -0.3550745993 1.239188186e-12 -0.2640954156 -1.439918441e-13 0.7540918595)
(0.03094197728 4.254175463e-14 167.4007199 1.501708335e-13 -0.3464453234 0 -0.2642753539 -6.945314625e-14 0.6294255414)
(0.1345085902 7.117185074e-14 197.5449351 1.444728288e-13 -0.3359746708 0 -0.2626054503 -6.845636445e-14 0.4927360137)
(0.2469764965 1.07129308e-13 231.9514226 1.395785327e-13 -0.3236372049 0 -0.2589401911 -6.822435345e-14 0.3452416578)
(0.3666921127 1.405718501e-13 271.0020103 1.336794648e-13 -0.3094522915 0 -0.2531664987 -6.33914892e-14 0.1887468975)
(0.4917205418 1.706334864e-13 315.08026 1.273545619e-13 -0.2934771307 0 -0.2452286675 -5.125115207e-14 0.02551847917)
(0.6195356162 2.016337691e-13 364.5675739 1.211733862e-13 -0.2758108421 0 -0.2351215398 -5.842633776e-14 -0.1417902555)
(0.7471267907 2.38099378e-13 419.83797 1.145266657e-13 -0.2566003994 0 -0.222879396 -5.919123103e-14 -0.3099636625)
(0.8712062218 2.793700567e-13 481.2543348 1.06222116e-13 -0.2360381232 0 -0.2086400171 -5.540603761e-14 -0.4753220626)
(0.9881621859 3.250011921e-13 549.1662685 9.976161321e-14 -0.214358277 0 -0.1925942882 -4.730704443e-14 -0.6338716572)
(1.094025267 3.284388268e-13 623.9059841 9.219110137e-14 -0.1918366927 0 -0.174990057 -6.230790729e-14 -0.7812979571)
(1.184544212 3.335755353e-13 705.7845333 8.437170541e-14 -0.1687887844 0 -0.1561372944 -4.518148648e-14 -0.9129296855)
(1.255235929 3.869103401e-13 795.0898845 7.687359275e-14 -0.1455664566 0 -0.1364037667 -2.102214088e-14 -1.023816301)
(1.301401585 5.799715555e-13 892.0849311 6.850132894e-14 -0.1225548483 -3.023506932e-13 -0.1162069776 -4.311175232e-14 -1.108786877)
(1.318182634 4.749871077e-13 997.0061157 5.686257829e-14 -0.1001693549 3.032670842e-13 -0.09600370424 -4.296946924e-15 -1.162477629)
(1.300692701 3.730314312e-13 1110.063568 5.26067139e-14 -0.07885132614 0 -0.07630027957 -2.627532616e-14 -1.179403271)
(1.24425654 5.352332073e-13 1231.442306 4.386773089e-14 -0.05906204355 0 -0.05763394259 -7.453050102e-15 -1.154077836)
(1.144419058 5.327800855e-13 1361.303354 3.582307246e-14 -0.04127303207 0 -0.04056615776 3.810595003e-14 -1.081027985)
(0.9946209456 5.483525659e-13 1499.788298 2.809367124e-14 -0.02596197178 0 -0.02566995072 -5.98165348e-15 -0.9546882176)
(0.7804598992 5.862027838e-13 1647.034449 2.033281118e-14 -0.0136662917 0 -0.01357060297 -3.32579661e-15 -0.7694382682)
(0.4943016253 6.257777116e-13 1803.218423 1.233010429e-14 -0.005118847857 0 -0.005080949379 -2.767984631e-15 -0.5196851404)
(0.241454375 6.645835756e-13 1968.693881 4.184429742e-15 -0.0009127971218 0 -0.0008978516874 -1.056022003e-15 -0.1997097875)
(-0.199308741 -3.771552472e-13 0.1316521693 1.176902877e-12 -0.3249124654 0 -0.00917132108 -7.494201641e-13 1.173370192)
(-0.2670313154 -4.545871501e-13 0.3106186769 7.285845464e-13 -0.2847592207 0 -0.02388979318 -5.375030955e-13 1.175540691)
(-0.2678092387 -4.352963785e-13 0.5132410583 6.004430551e-13 -0.2737636613 0 -0.03764878415 -5.171549927e-13 1.18015381)
(-0.2799744738 -1.857971368e-14 0.7304493896 5.602866207e-13 -0.2738978887 0 -0.05171772749 -3.247897979e-13 1.186928281)
(-0.2888385965 1.698002912e-13 0.968755595 3.644784297e-13 -0.275956615 0 -0.06542973542 -3.456443737e-13 1.195617082)
(-0.2985077743 -6.030908227e-14 1.236211293 2.98714411e-13 -0.2788264768 0 -0.07867585424 -2.169242844e-13 1.205945363)
(-0.3095534508 -2.161838701e-13 1.543434855 2.736405175e-13 -0.28234807 0 -0.09144582355 -1.469131373e-13 1.217635921)
(-0.3216359556 -3.35708388e-13 1.90409399 2.760939806e-13 -0.2863921973 0 -0.1036553749 -1.010722394e-13 1.230379339)
(-0.334571288 -1.187805243e-13 2.335645784 2.861732917e-13 -0.2908598875 0 -0.1153736592 -7.433473345e-14 1.243698679)
(-0.3480744674 1.243028196e-13 2.860796134 2.471062286e-13 -0.2956817658 0 -0.1266252 -3.123173465e-14 1.257114918)
(-0.3617195654 -2.120801041e-14 3.50881258 2.138348046e-13 -0.3007747637 0 -0.1373866525 -6.269297264e-14 1.270129785)
(-0.3750948155 -3.079643868e-13 4.316697447 2.105980466e-13 -0.3060521855 0 -0.1476810158 -8.951079334e-14 1.282212492)
(-0.3877959767 -4.158213379e-13 5.330424607 2.285337449e-13 -0.311425373 0 -0.1575567152 -1.27401925e-13 1.292815814)
(-0.3994816925 -2.399201623e-13 6.606136465 2.378544433e-13 -0.3168067803 1.733544128e-12 -0.1670469389 -8.718176105e-14 1.301392531)
(-0.4098463046 -1.621663589e-13 8.21123409 2.292750816e-13 -0.3221164211 0 -0.1761800227 -5.367992418e-14 1.307411179)
(-0.4184150216 -1.95834669e-13 10.2254514 2.290560784e-13 -0.3272784406 -1.595601525e-12 -0.1850499639 -1.297225254e-14 1.310384147)
(-0.4246017344 -7.936742199e-14 12.74228885 2.257039763e-13 -0.3322043422 0 -0.193757774 -4.493910109e-14 1.309815215)
(-0.4280090115 -2.117078594e-14 15.87073532 2.14375303e-13 -0.3368012319 0 -0.2022997738 -5.947231379e-14 1.305065254)
(-0.4281667507 -5.338119099e-14 19.73684116 2.070274606e-13 -0.3409873798 0 -0.2106207677 -6.766718321e-14 1.295396598)
(-0.4242129063 -5.744455267e-14 24.48515846 1.998108973e-13 -0.3446711865 0 -0.2187565108 -6.810836922e-14 1.280020754)
(-0.4153084749 -5.083654709e-14 30.28050227 1.940040404e-13 -0.3477400836 0 -0.2266993003 -6.016722042e-14 1.258015234)
(-0.4006240646 -4.634363866e-14 37.30935443 1.881382492e-13 -0.3500815113 0 -0.234317833 -4.030874679e-14 1.228367727)
(-0.3790577461 -3.724835835e-14 45.7806308 1.834703705e-13 -0.3515706317 0 -0.241527616 -5.893907659e-14 1.190080306)
(-0.3496907802 -1.326056329e-14 55.92631311 1.786180994e-13 -0.3520675859 0 -0.248189988 -6.968890993e-14 1.142101826)
(-0.3117005552 2.388331333e-14 68.00146794 1.729222884e-13 -0.3514394676 0 -0.2541494728 -7.570185162e-14 1.083479652)
(-0.2642551459 8.091676448e-14 82.28396501 1.657574151e-13 -0.3495489962 0 -0.259245902 -7.851645251e-14 1.013421412)
(-0.2067786461 5.399778588e-14 99.07349161 1.577532105e-13 -0.3462655415 0 -0.2632466352 -7.791120775e-14 0.9313167125)
(-0.1388648408 3.157926309e-14 118.6898294 1.537772811e-13 -0.3414700306 0 -0.2659659958 -7.666869615e-14 0.8368518293)
(-0.06054167866 -1.119502038e-14 141.4709742 1.47637655e-13 -0.3350571149 0 -0.2672092385 -5.738465931e-14 0.7299622937)
(0.02783629317 -6.352930182e-15 167.7704087 1.459660501e-13 -0.3269515546 1.230199468e-12 -0.2667878523 -5.756453697e-14 0.6110192364)
(0.1257013161 8.531783762e-14 197.9541145 1.402938626e-13 -0.3171014636 0 -0.264541667 -6.392746546e-14 0.4808068019)
(0.2318929324 1.072615549e-13 232.3970442 1.342329719e-13 -0.3054856415 0 -0.2603144684 -6.568605258e-14 0.3404789056)
(0.3448806951 1.326651312e-13 271.4792799 1.289474484e-13 -0.2921240647 0 -0.2540255042 -6.488248501e-14 0.1917235167)
(0.4628543271 1.597073789e-13 315.5827916 1.232273307e-13 -0.2770715639 0 -0.2456357437 -6.259876162e-14 0.03664658219)
(0.5834096001 1.88193739e-13 365.0870675 1.170558439e-13 -0.2604223536 0 -0.2351413731 -5.978050935e-14 -0.122263342)
(0.7037659466 2.182390272e-13 420.3640485 1.110027683e-13 -0.2423165866 0 -0.2225884941 -5.522672046e-14 -0.2819587863)
(0.8208984433 2.49741523e-13 481.7748978 1.03874666e-13 -0.2229338811 0 -0.2081105753 -4.910904562e-14 -0.4390068427)
(0.931395235 2.817554955e-13 549.6674147 9.741428113e-14 -0.2024937886 0 -0.1918964941 -4.127888303e-14 -0.5897149623)
(1.031519035 3.128607052e-13 624.3718103 9.013588573e-14 -0.1812553002 0 -0.1741916082 -3.200434948e-14 -0.7299971727)
(1.117270071 3.448437376e-13 706.19721 8.290181507e-14 -0.159514615 0 -0.1553004667 -3.392351747e-14 -0.8554437983)
(1.184409681 3.797276019e-13 795.4297349 7.569545339e-14 -0.1376024492 0 -0.135581482 -3.370037185e-14 -0.9613752977)
(1.228469896 4.380385021e-13 892.3304378 6.761553589e-14 -0.1158814103 0 -0.1154352578 -3.009768476e-14 -1.042884566)
(1.244853581 4.797583375e-13 997.1340424 5.952801165e-14 -0.09474347356 0 -0.09531527614 1.371645378e-14 -1.094853638)
(1.228924199 5.046911626e-13 1110.049299 5.141786161e-14 -0.07460481615 0 -0.07572066306 -1.905712637e-14 -1.112077578)
(1.176206158 3.813715009e-13 1231.259948 4.282326111e-14 -0.05590150273 0 -0.0571805241 -1.227353022e-14 -1.089348452)
(1.082439007 5.367471231e-13 1360.925448 3.904565011e-14 -0.03907999039 0 -0.04023988706 -5.296412125e-14 -1.021390775)
(0.94132172 6.813369896e-13 1499.185653 2.703921709e-14 -0.02459315713 0 -0.02546260041 -8.815892993e-15 -0.9028603506)
(0.7390834421 5.583456329e-13 1646.176334 1.968912814e-14 -0.01295223558 0 -0.01346055366 -7.319063018e-15 -0.728341866)
(0.4684121207 6.066400151e-13 1802.072386 1.196829428e-14 -0.004854925884 0 -0.005039809594 -4.83350322e-15 -0.4923849534)
(0.2290472696 6.448071249e-13 1967.224397 4.057483677e-15 -0.0008667392396 0 -0.0008906057024 -1.72009859e-15 -0.1894250852)
(-0.1803074352 -7.885227419e-14 0.1288188627 5.090254802e-13 -0.2938167202 0 -0.009327305384 -3.05843256e-13 1.121137823)
(-0.2417974933 -2.561770129e-13 0.3040690816 2.410406231e-13 -0.2575712616 0 -0.02433128937 -8.646876805e-13 1.123430212)
(-0.2430185954 -3.282949247e-13 0.5027270932 2.842209412e-13 -0.247785656 0 -0.03842714955 -4.683662392e-13 1.128306869)
(-0.2549199452 -2.348967403e-13 0.7161468988 2.912748326e-13 -0.2481594341 0 -0.0528092057 -3.962234951e-13 1.135416866)
(-0.264099401 -1.757299815e-13 0.9509332097 2.650752216e-13 -0.250402093 0 -0.06682438469 -2.177631828e-13 1.144502653)
(-0.2741240218 -2.210065404e-13 1.215249801 2.508701809e-13 -0.2534525161 0 -0.08038592956 -1.927850206e-13 1.155345874)
(-0.2856673111 -2.514691542e-13 1.519790425 2.504751826e-13 -0.2571488456 0 -0.09350917037 -3.009714711e-14 1.167581271)
(-0.2983484487 -2.332749459e-13 1.878407521 2.502908048e-13 -0.2614008341 0 -0.106093003 -7.360107798e-14 1.180904413)
(-0.3117799631 -1.868102324e-13 2.308816166 2.469634542e-13 -0.2660891137 0 -0.1181442652 -1.280571934e-13 1.194880876)
(-0.3257622607 -1.52782683e-13 2.833818837 2.374157882e-13 -0.2711270944 0 -0.1297373342 -7.892763448e-14 1.208967688)
(-0.3399347628 -1.43635048e-13 3.482758146 2.308614635e-13 -0.2764402777 0 -0.1408801774 7.160613068e-14 1.222612199)
(-0.3538132596 -1.410603667e-13 4.292742415 2.232903396e-13 -0.2819413676 0 -0.1515750928 3.307485063e-14 1.235256759)
(-0.3669888253 -1.444896196e-13 5.309839353 2.178629085e-13 -0.2875363411 0 -0.1618363702 -7.298169639e-14 1.246332977)
(-0.3791203043 -1.494715928e-13 6.590218843 2.141536447e-13 -0.2931376421 0 -0.1716901279 -1.772032626e-13 1.255283945)
(-0.3897634959 -1.614535136e-13 8.201236846 2.082109398e-13 -0.2986620697 0 -0.1812055666 -1.554178565e-13 1.261612458)
(-0.3984155357 -1.450461765e-13 10.22268081 2.056830091e-13 -0.3040190476 -1.595601525e-12 -0.1904794823 -1.928099848e-13 1.264852786)
(-0.4046942368 -1.189479057e-13 12.74832144 2.031335786e-13 -0.3091174132 0 -0.1995281026 -1.894529749e-13 1.264479557)
(-0.4082927739 -1.145690503e-13 15.88745422 1.983336137e-13 -0.3138745202 0 -0.2082943909 -1.67878018e-13 1.259883144)
(-0.4086381021 -1.097437746e-13 19.76632894 1.942654938e-13 -0.3182136739 0 -0.2167912243 -1.243615358e-13 1.250403102)
(-0.4048790353 -9.707440715e-14 24.52985461 1.901314766e-13 -0.322041127 0 -0.2250516533 -9.972091821e-14 1.23534175)
(-0.3963530653 -8.140910916e-14 30.34326463 1.858923732e-13 -0.3252490675 0 -0.2329895236 -8.394976881e-14 1.213831682)
(-0.3823125401 -6.441375027e-14 37.39321565 1.828385802e-13 -0.3277361287 0 -0.2405331298 -7.337272438e-14 1.184953095)
(-0.3617545531 -4.585107339e-14 45.88881789 1.776149332e-13 -0.3293854801 0 -0.2476092197 -6.853558442e-14 1.147799875)
(-0.3338238416 -2.557831991e-14 56.06216875 1.734964335e-13 -0.3300713177 0 -0.2540324412 -6.510188577e-14 1.101433784)
(-0.2976814728 -4.406629085e-15 68.16819502 1.678734625e-13 -0.3296692009 0 -0.259675796 -6.032552576e-14 1.045012021)
(-0.252650999 1.555071144e-14 82.48447364 1.626416742e-13 -0.3280504873 0 -0.2643907317 -5.153303971e-14 0.977781038)
(-0.1982560104 2.840525453e-14 99.31016013 1.559045401e-13 -0.3250990174 0 -0.267975115 -3.446322344e-14 0.8991977096)
(-0.1341021146 3.572332626e-14 118.9644222 1.519465992e-13 -0.3207062608 0 -0.2702476399 -4.474762269e-14 0.8089934536)
(-0.06020015268 3.649460829e-14 141.7843917 1.464275103e-13 -0.3147774935 0 -0.270994743 -4.823024395e-14 0.7071389569)
(0.02315157807 6.180116403e-14 168.122382 1.417612668e-13 -0.3072435698 6.15099734e-13 -0.27006917 -8.986275466e-14 0.5939936706)
(0.1153416278 9.488841628e-14 198.3432005 1.361148965e-13 -0.2980573597 0 -0.267335675 -7.548651417e-14 0.4702653638)
(0.2152984599 1.098728521e-13 232.8203631 1.300753135e-13 -0.2872037392 0 -0.2626337787 -6.8589798e-14 0.3370774564)
(0.3216730907 1.310517862e-13 271.9323784 1.24806934e-13 -0.2747015749 0 -0.2558996438 -6.55152517e-14 0.1960074523)
(0.4327363762 1.546991958e-13 316.0597203 1.19689704e-13 -0.2606024708 0 -0.2471058713 -6.522155249e-14 0.04898031682)
(0.5462120432 1.781233382e-13 365.5800326 1.13526522e-13 -0.2449962222 0 -0.2362478782 -6.816898253e-14 -0.1016550971)
(0.659529264 2.034729564e-13 420.8633284 1.074788709e-13 -0.2280152002 0 -0.223389596 -5.913557168e-14 -0.2530415957)
(0.7698879547 2.332755591e-13 482.2692069 1.003534908e-13 -0.2098275925 0 -0.2086582157 -5.056888492e-14 -0.4019764714)
(0.8740984874 2.674399791e-13 550.1437354 9.506694906e-14 -0.1906387707 0 -0.1922389573 -4.115792614e-14 -0.5450164829)
(0.9686568997 3.038381709e-13 624.8151695 8.719986339e-14 -0.1706911224 0 -0.1743758022 -4.338598587e-14 -0.6783222202)
(1.049800544 3.393833247e-13 706.5907914 8.054999053e-14 -0.1502620318 0 -0.1553693114 -4.66276462e-14 -0.7977422718)
(1.11350766 3.731342209e-13 795.7549216 7.275010501e-14 -0.1296616849 0 -0.135569287 -5.240869417e-14 -0.8988573245)
(1.155568825 4.060966087e-13 892.5668145 6.554868545e-14 -0.1092313387 0 -0.1153675791 -5.065842759e-14 -0.9769972203)
(1.17165827 4.383359529e-13 997.2596022 5.789913571e-14 -0.08933917263 0 -0.09522063672 -4.039019141e-14 -1.027323817)
(1.157369766 4.686254882e-13 1110.040718 5.052622239e-14 -0.07037692497 0 -0.07561911949 -3.681530422e-14 -1.044942888)
(1.108423338 6.6770208e-13 1231.092441 4.252484117e-14 -0.05275564448 0 -0.05708925243 -3.363424086e-14 -1.024871227)
(1.020738098 5.146534521e-13 1360.572689 3.020229749e-14 -0.03689744893 3.069692569e-13 -0.04017027068 -7.95119782e-14 -0.9620229764)
(0.8882773001 3.691769308e-13 1498.619796 2.722751248e-14 -0.02323094818 0 -0.02541667923 -2.804540503e-14 -0.8512789818)
(0.6979078525 5.700119073e-13 1645.367819 1.94998096e-14 -0.01224160996 0 -0.01343684856 -2.125677516e-14 -0.6874435375)
(0.4426473866 6.026280356e-13 1800.989802 1.182547453e-14 -0.004592246858 0 -0.005031658076 -1.280326725e-14 -0.4652153549)
(0.2166983474 6.371054247e-13 1965.833437 4.004789083e-15 -0.0008208923268 0 -0.0008893423308 -4.294189507e-15 -0.1791883131)
(-0.1609333194 1.05202027e-12 0.1257948108 -8.806790202e-13 -0.2621816568 0 -0.00949715205 3.674411889e-14 1.067975393)
(-0.2160517617 -4.867777348e-13 0.2971279922 -1.222273981e-12 -0.2298735728 0 -0.02478042465 1.132436432e-13 1.070392947)
(-0.2177619004 -1.179951955e-12 0.4916898271 -4.084360192e-14 -0.2213013545 0 -0.03912146114 9.080962506e-14 1.075498401)
(-0.2293672836 -4.841813596e-13 0.7012154688 1.694465056e-13 -0.2219345101 0 -0.05371003984 1.828279208e-14 1.082897985)
(-0.2388002861 -1.773073043e-13 0.9323155001 1.958391562e-13 -0.2243478131 0 -0.0679935185 -1.367212434e-14 1.092357933)
(-0.249179492 -4.242364466e-13 1.193358461 1.755675229e-13 -0.2275669007 0 -0.08183235447 -1.654704159e-14 1.103652002)
(-0.2611505293 -4.18438706e-13 1.495167075 2.562665163e-13 -0.2314320055 0 -0.09522336685 -3.580243814e-14 1.116389487)
(-0.2743769455 -1.466182307e-13 1.851636901 2.412596933e-13 -0.2358690138 0 -0.1081622765 -4.818849069e-14 1.130214666)
(-0.2883513125 -1.175312136e-13 2.280765806 2.323329178e-13 -0.240763956 0 -0.1205753279 -4.295927211e-14 1.144727054)
(-0.3027918738 -2.817524969e-13 2.805592427 2.174965498e-13 -0.2460128907 0 -0.132491624 -1.242828636e-13 1.159387977)
(-0.3174055967 -2.33938547e-13 3.455537523 2.388740089e-13 -0.251533688 0 -0.1439655625 -9.799562778e-14 1.173597771)
(-0.3317667918 -4.088453463e-15 4.267765772 2.218800848e-13 -0.2572420442 0 -0.1550151542 -8.139059661e-14 1.186753336)
(-0.3454209268 2.703052756e-14 5.288383447 2.063028358e-13 -0.2630473608 0 -0.1656441881 -7.335352455e-14 1.198276048)
(-0.3579036577 -7.135038134e-14 6.57351733 1.89606389e-13 -0.2688573198 1.733544128e-12 -0.1759010943 -5.96724924e-14 1.207632982)
(-0.3687460991 -1.242186239e-13 8.19050798 1.887671166e-13 -0.2745769678 0 -0.1858592765 -5.537101521e-14 1.214340148)
(-0.377579194 -1.225077511e-13 10.21928808 1.807517353e-13 -0.2801119357 -1.595601525e-12 -0.1955391039 -5.521277781e-14 1.217910315)
(-0.3841519169 -1.370314082e-13 12.75382427 1.80563181e-13 -0.2853778304 0 -0.2049087436 -5.078467504e-14 1.217815633)
(-0.3880719203 -1.72975098e-13 15.90357733 1.764585827e-13 -0.2903011679 0 -0.2139314699 -4.855108016e-14 1.213501233)
(-0.3886667421 -2.128787725e-13 19.79498961 1.800855308e-13 -0.2948009779 0 -0.2226592795 -5.052137091e-14 1.204400715)
(-0.3853149867 -1.539504559e-13 24.57332136 1.797606688e-13 -0.2987820764 0 -0.2310959399 -5.247852642e-14 1.189838107)
(-0.3774343548 -1.149865792e-13 30.40416338 1.784566783e-13 -0.3021521241 0 -0.2391051517 -5.372431778e-14 1.169030466)
(-0.3641872766 -8.443759727e-14 37.47436919 1.755515354e-13 -0.3048128848 0 -0.2466480752 -5.470092686e-14 1.141171955)
(-0.3447884488 -5.816553594e-14 45.99319847 1.704582875e-13 -0.3066520459 0 -0.2536548142 -5.622304905e-14 1.105400817)
(-0.3184881276 -3.456436782e-14 56.19277005 1.664541429e-13 -0.3075602457 0 -0.2599516352 -5.732437478e-14 1.060877268)