/*--------------------------------*- C++ -*----------------------------------*\
  =========                 |
  \\      /  F ield         | OpenFOAM: The Open Source CFD Toolbox
   \\    /   O peration     | Website:  https://openfoam.org
    \\  /    A nd           | Version:  7
     \\/     M anipulation  |
\*---------------------------------------------------------------------------*/
FoamFile
{
    version     2.0;
    format      ascii;
    class       volScalarField;
    location    "0.0024";
    object      p;
}
// * * * * * * * * * * * * * * * * * * * * * * * * * * * * * * * * * * * * * //

dimensions      [1 -1 -2 0 0 0 0];

internalField   nonuniform List<scalar> 
1167
(
340151.8594
341553.7338
341524.1798
341752.5777
342167.4554
342691.4818
343314.3528
344034.7319
344851.2902
345754.4598
346721.9666
347728.9217
348746.9858
349747.3317
350703.1464
351593.5759
352405.7301
329855.7657
331179.9354
331151.8675
331365.2551
331764.6807
332262.698
332864.8257
333559.3842
334347.0452
335218.801
336155.2952
337132.2545
338121.2995
339093.1589
340021.8141
340887.1678
341676.2643
342387.3163
343020.2346
343578.3144
344069.4317
344500.3253
344877.3074
345207.7164
345496.519
345749.0456
345969.4612
346161.1289
346327.5368
346471.1639
346594.4737
346699.5194
346788.0452
346861.8216
346922.3067
346970.7949
347008.437
347036.3783
347055.6029
347066.9928
347071.3427
347069.3665
347061.7009
347048.916
347031.5524
347010.1468
346985.0821
346955.9871
346921.9288
346888.0119
319578.0459
320818.437
320789.2431
320995.4478
321376.6735
321850.0523
322423.8525
323094.276
323853.4327
324694.6362
325599.7433
326544.8477
327502.221
328443.4255
329342.9232
330180.6252
330946.4627
331636.7023
332250.5607
332791.7775
333268.2048
333685.4802
334050.6218
334370.1819
334649.0691
334892.8597
335105.3012
335290.0505
335450.3173
335588.5551
335707.329
335808.5495
335893.9244
335965.1987
336023.7622
336070.8409
336107.59
336135.0765
336154.2333
336165.8953
336170.8135
336169.6588
336163.0248
336151.4503
336135.451
336115.5377
336092.0664
336064.6745
336032.4702
336000.3155
309318.0809
310466.5686
310439.1975
310639.2903
310997.4278
311449.7033
311993.783
312638.1687
313369.452
314179.3443
315051.8138
315963.8493
316888.3114
317797.2173
318665.1802
319474.5262
320215.982
320883.5278
321476.7412
322000.8505
322461.7294
322864.8392
323217.9072
323526.4771
323795.6358
324030.7082
324235.318
324413.3793
324567.7541
324700.8981
324815.3436
324912.9433
324995.3816
325064.3346
325121.1305
325166.926
325202.8884
325230.0036
325249.1546
325261.1322
325266.6453
325266.3228
325260.7205
325250.3568
325235.7173
325217.2796
325195.3809
325169.6724
325139.302
325108.891
299067.7251
300126.2443
300108.4884
300297.6349
300630.1096
301062.6652
301579.3577
302191.3814
302894.5343
303673.5716
304512.402
305389.9251
306279.6379
307153.5495
307989.0384
308769.9133
309484.5553
310127.7891
310699.5686
311205.5588
311650.1288
312038.9679
312379.4388
312676.6564
312936.1805
313162.6379
313359.6448
313531.0879
313679.6725
313807.963
313918.2747
314012.3934
314092.0765
314158.8554
314214.01
314258.6499
314293.9052
314320.7104
314339.9029
314352.2303
314358.3581
314358.8717
314354.31
314345.164
314331.8855
314314.9181
314294.5836
314270.5496
314242.0046
314213.3303
288835.6971
289803.9148
289793.6119
289969.5109
290279.7856
290687.1951
291177.0764
291756.4703
292426.8525
293173.9103
293979.1174
294820.6996
295673.4872
296512.103
297315.0885
298065.3048
298751.4838
299368.8497
299919.1962
300405.8722
300833.138
301207.6355
301535.2536
301821.0231
302070.79
302288.5584
302478.1194
302643.0523
302785.9608
302909.552
303015.8774
303106.6614
303183.7104
303248.4212
303302.0159
303345.5854
303380.1987
303406.7441
303426.0155
303438.7183
303445.4751
303446.8379
303443.3283
303435.4062
303423.4921
303408.0009
303389.2345
303366.8764
303340.159
303313.225
278631.0297
279499.3764
279492.2622
279650.8955
279942.5312
280320.2339
280785.6027
281334.4621
281969.534
282681.0041
283450.5691
284255.4326
285071.1547
285874.2645
286642.7918
287360.3727
288016.5433
288607.4499
289135.3548
289601.9125
290011.3983
290371.012
290685.3846
290959.7575
291199.5373
291408.4918
291590.6748
291749.1781
291886.5527
292005.4888
292107.9155
292195.4973
292269.9805
292332.6886
292384.7664
292427.3238
292461.3417
292487.6624
292507.0383
292520.1319
292527.5232
292529.7526
292527.3087
292520.6199
292510.0786
292496.0729
292478.8848
292458.2145
292433.3389
292408.1597
268446.5795
269209.1902
269204.0766
269348.0374
269619.7686
269967.1204
270404.4782
270923.1333
271524.0874
272198.5017
272929.9356
273696.7111
274474.4772
275239.5056
275971.444
276654.8734
277279.5707
277844.0237
278348.0398
278793.3384
279185.1087
279529.1391
279829.7399
280092.6445
280322.3546
280522.5224
280697.2424
280849.2869
280981.2167
281095.5389
281194.0815
281278.5382
281350.5136
281411.2678
281461.8807
281503.457
281536.9038
281563.0182
281582.5111
281596.0039
281604.041
281607.1473
281605.7795
281600.3358
281591.1813
281578.6774
281563.0855
281544.124
281521.1155
281497.7161
258284.3247
258933.6223
258928.0434
259064.3361
259311.6405
259630.0208
260032.2665
260521.5447
261087.7602
261724.595
262416.9447
263143.598
263880.9468
264606.3269
265300.2475
265947.612
266540.9383
267077.841
267557.038
267980.3455
268353.9368
268681.9811
268968.6064
269219.7226
269439.1279
269630.5417
269797.6976
269943.1874
270069.7215
270179.454
270274.112
270355.4786
270424.9702
270483.7902
270532.973
270573.5742
270606.4541
270632.3651
270651.9729
270665.8539
270674.5467
270678.5399
270678.2585
270674.0732
270666.3236
270655.3438
270641.3733
270624.1508
270603.0461
270581.4628
248137.3734
248665.5698
248667.891
248794.5076
249012.1339
249305.1427
249672.3891
250127.6762
250659.9177
251258.126
251909.6479
252594.5657
253290.1127
253974.3894
254628.3566
255239.1643
255800.837
256308.7066
256761.9699
257163.3909
257517.9536
257829.3174
258101.984
258340.9445
258549.7337
258732.3375
258891.8647
259030.7772
259151.8512
259256.9718
259347.7741
259426.0283
259493.0185
259549.8633
259597.6185
259637.2415
259669.5458
259695.2424
259714.9543
259729.2169
259738.5625
259743.4447
259744.2577
259741.3453
259735.022
259725.595
259713.2818
259697.8403
259678.6876
259658.9677
238003.9565
238412.8934
238428.244
238540.4358
238727.5559
238994.2244
239328.1687
239743.7637
240239.2803
240799.46
241408.8894
242050.2835
242702.0851
243342.7695
243955.9486
244530.4669
245058.6964
245536.4067
245962.8556
246342.0865
246677.0224
246971.1598
247229.6344
247456.2048
247654.2478
247827.8212
247979.5843
248111.9004
248227.3941
248327.8212
248414.751
248489.8419
248554.289
248609.1216
248655.4178
248694.0322
248725.7309
248751.1803
248770.9596
248785.5958
248795.5849
248801.3509
248803.2607
248801.6337
248796.7597
248788.9193
248778.3085
248764.7021
248747.5634
248729.768
227894.1896
228181.8502
228203.1887
228297.1434
228459.5215
228692.5003
228995.031
229372.2516
229825.504
230344.5091
230911.5994
231508.1381
232114.2311
232711.1011
233283.7253
233820.4818
234313.981
234760.4573
235160.2131
235516.3954
235831.1153
236107.8575
236351.5719
236565.3355
236752.5804
236916.8509
237060.5683
237186.2489
237296.0735
237391.6694
237474.6839
237546.5521
237608.4
237661.1977
237705.9727
237743.5229
237774.5662
237799.7223
237819.5258
237834.5049
237845.1167
237851.755
237854.7615
237854.4324
237851.0341
237844.8202
237835.9648
237824.2585
237809.2109
237793.4163
217809.0496
217964.7425
217990.8687
218064.7083
218203.7014
218400.3549
218672.2704
219011.8298
219422.0225
219895.6827
220417.6959
220968.1205
221528.0977
222080.9425
222611.5288
223108.9251
223566.6882
223981.0476
224353.8391
224686.1156
224979.8048
225239.0937
225467.6115
225668.1387
225844.427
225999.2025
226134.7038
226253.5889
226357.6132
226448.2757
226527.2678
226595.8121
226654.948
226705.6403
226748.8194
226785.2311
226815.5459
226840.339
226860.1191
226875.3921
226886.5854
226894.0675
226898.1577
226899.1313
226897.2321
226892.6876
226885.6488
226875.9224
226863.0645
226849.3692
207743.2709
207759.92
207788.4485
207849.4498
207962.5386
208123.6253
208358.4014
208660.8498
209028.5744
209456.3393
209930.3127
210432.7359
210945.4429
211451.9017
211938.5986
212395.4494
212816.0557
213198.6784
213543.5706
213851.2434
214123.4472
214364.7879
214577.7132
214764.7624
214929.7128
215074.7363
215201.9118
215313.727
215411.7671
215497.4032
215572.2113
215637.2977
215693.5935
215742.0857
215783.5772
215818.7623
215848.2615
215872.6001
215892.2913
215907.7995
215919.5253
215927.8152
215932.97
215935.2474
215934.8715
215932.0445
215926.8943
215919.2429
215908.692
215897.2153
197695.5467
197564.1854
197596.8677
197648.7957
197731.31
197860.198
198053.6573
198318.6901
198642.6965
199023.1226
199447.9586
199900.4984
200363.7604
200822.5329
201264.3126
201679.3392
202062.5028
202413.0142
202729.0427
203011.2204
203262.1141
203484.8292
203681.5477
203855.0186
204008.2302
204143.0864
204261.7997
204366.3394
204458.1316
204538.605
204609.074
204670.5522
204723.8862
204770.0314
204809.6983
204843.5261
204872.0852
204895.8558
204915.3485
204930.9913
204943.1607
204952.1857
204958.3533
204961.9087
204963.0615
204961.9921
204958.8074
204953.3481
204945.2627
204936.1682
187654.97
187375.3613
187422.0934
187460.819
187508.9613
187608.6773
187761.6835
187982.2059
188263.8079
188595.7304
188969.4149
189370.3418
189782.8317
190192.7185
190588.0887
190960.481
191306.6631
191623.7098
191910.038
192166.1027
192395.2592
192598.8612
192778.8793
192938.4685
193079.6257
193204.0272
193314.0368
193411.0788
193496.4147
193571.5565
193637.5239
193695.2341
193745.4955
193789.1657
193826.8898
193859.2455
193886.7465
193909.8638
193929.0658
193944.7544
193957.2865
193966.9782
193974.1083
193978.9163
193981.6045
193982.3384
193981.2077
193978.0734
193972.6297
193966.1062
177629.2692
177203.7012
177265.119
177288.2752
177304.0537
177371.1012
177483.7786
177655.6282
177890.5135
178174.6208
178495.8138
178843.3419
179203.3722
179562.3374
179910.0239
180240.1684
180548.3181
180830.9616
181086.7073
181316.8036
181523.387
181707.2979
181870.3426
182015.4675
182144.1466
182257.8365
182358.6905
182447.8946
182526.5424
182596.0316
182657.2113
182710.864
182757.8215
182798.7855
182834.338
182864.9958
182891.2122
182913.4649
182932.1713
182947.7069
182960.4128
182970.5974
182978.5392
182984.4831
182988.6373
182991.1667
182992.1593
182991.5165
182988.9899
182985.3405
167633.2304
167056.8664
167126.1935
167127.4174
167117.3033
167143.8468
167218.7014
167343.6331
167524.4609
167755.6698
168023.7289
168316.5115
168622.0834
168929.3623
169229.6037
169516.7713
169785.5213
170032.926
170257.3644
170461.0936
170644.4437
170807.9723
170953.9637
171084.2341
171199.9746
171302.8452
171394.3488
171475.4891
171547.3651
171611.0931
171667.3973
171716.9391
171760.5347
171798.7471
171832.0895
171861.0179
171885.9323
171907.287
171925.4578
171940.7928
171953.6162
171964.2304
171972.919
171979.9426
171985.5311
171989.8687
171993.0616
171995.067
171995.704
171995.2328
157685.9138
156950.7039
157023.9392
157000.1483
156961.0182
156942.7825
156976.6439
157052.716
157178.8555
157351.9758
157563.2113
157799.3327
158049.4945
158304.5753
158556.1972
158798.1679
159025.9841
159236.5473
159429.4873
159605.5172
159764.4917
159906.6857
160034.6689
160149.1858
160251.1478
160342.408
160423.7967
160496.1223
160560.5557
160617.8576
160668.6412
160713.4889
160753.1125
160787.9904
160818.5555
160845.1895
160868.287
160888.236
160905.3758
160920.0284
160932.5025
160943.0974
160952.1089
160959.8264
160966.5256
160972.4474
160977.7764
160982.6212
160986.9509
160990.3156
147770.5371
146910.5893
146983.6471
146939.9976
146857.0627
146784.5699
146758.1885
146777.7776
146842.4735
146952.3062
147099.6216
147274.2067
147465.9871
147665.9213
147866.3689
148061.9169
148247.9414
148421.4876
148583.0716
148731.2859
148865.8965
148987.5865
149097.8061
149197.0036
149285.9147
149366.0231
149437.8806
149502.0793
149559.6769
149611.1819
149657.0503
149697.8765
149734.1756
149766.3444
149794.7355
149819.6516
149841.4767
149860.5213
149877.0784
149891.4342
149903.8717
149914.6778
149924.154
149932.6198
149940.4094
149947.8509
149955.254
149962.9406
149971.119
149978.7247
138379.8364
137149.8137
137148.6156
137058.0795
136916.5547
136791.7199
136703.5592
136664.8344
136664.4721
136704.6251
136780.5687
136884.003
137006.4575
137140.3378
137279.1049
137417.7723
137551.6903
137679.7774
137800.6392
137912.5853
138015.065
138109.2812
138195.2007
138272.9569
138343.4756
138407.4148
138465.0601
138516.9572
138563.7898
138605.8747
138643.4884
138677.1922
138707.2898
138734.0752
138757.8085
138778.7291
138797.1482
138813.3132
138827.4629
138839.8373
138850.6828
138860.2612
138868.8658
138876.8361
138884.5663
138892.51
138901.2468
138911.6689
138924.657
138938.0021
127151.5176
126630.0499
126820.3891
126720.0474
126515.6676
126329.5848
126176.1035
126075.1499
126024.5924
126016.0987
126046.7678
126108.9813
126194.1831
126294.6143
126403.3647
126514.7746
126625.9513
126734.7827
126838.5792
126935.6508
127025.75
127109.5275
127186.4225
127256.3988
127320.6094
127379.1393
127432.1436
127480.3683
127524.1563
127563.7744
127599.4573
127631.7054
127660.764
127686.8648
127710.2009
127731.0281
127749.5769
127766.0489
127780.6389
127793.5432
127804.9652
127815.1263
127824.2876
127832.7746
127841.0007
127849.4937
127859.0373
127871.0632
127887.4125
127905.8301
126120.27
123664.5737
123046.46
122391.709
121662.917
120953.6121
120281.4922
119666.7685
119123.2517
118647.7998
118237.8817
117891.5704
117604.0439
117368.1664
117176.8411
117024.4581
116905.831
116814.3047
116744.7538
116692.3247
116654.9536
116629.3607
116612.4722
116602.4981
116598.2213
116598.0195
116600.557
116605.4782
116611.9166
116619.206
116627.0252
116635.1131
116643.2
116651.0774
116658.5535
116665.6303
116672.2456
116678.3744
116684.019
116689.2075
116693.9931
116698.4593
116702.738
116707.03
116711.6212
116716.9346
116723.9427
116735.3263
116755.3419
116780.6492
102768.9166
102972.4339
103367.5439
103474.5442
103523.5721
103592.5749
103684.7059
103796.005
103922.8216
104059.0959
104195.4889
104328.7721
104456.5634
104576.3085
104686.8301
104788.9119
104882.0759
104966.3467
105042.2807
105110.16
105171.6625
105227.0608
105276.7049
105321.5162
105362.0615
105398.7007
105431.7283
105461.7612
105489.0008
105513.6277
105536.0014
105556.2885
105574.654
105591.238
105606.1403
105619.5232
105631.4853
105642.1201
105651.516
105659.7589
105666.9345
105673.1321
105678.4562
105683.0388
105687.0438
105690.6795
105694.4907
105700.5371
105713.5013
105734.2643
)
;

boundaryField
{
    front_top
    {
        type            wedge;
    }
    front_middle
    {
        type            wedge;
    }
    front_bottom
    {
        type            wedge;
    }
    back_top
    {
        type            wedge;
    }
    back_middle
    {
        type            wedge;
    }
    back_bottom
    {
        type            wedge;
    }
    axis_top
    {
        type            symmetryPlane;
    }
    axis_middle
    {
        type            symmetryPlane;
    }
    axis_bottom
    {
        type            symmetryPlane;
    }
    wall_top
    {
        type            fixedFluxPressure;
        gradient        nonuniform 0();
        value           nonuniform 0();
    }
    wall_middle
    {
        type            fixedFluxPressure;
        gradient        nonuniform 0();
        value           nonuniform 0();
    }
    wall_bottom
    {
        type            fixedFluxPressure;
        gradient        uniform 0;
        value           nonuniform List<scalar> 
23
(
346888.0119
336000.3155
325108.891
314213.3303
303313.225
292408.1597
281497.7161
270581.4628
259658.9677
248729.768
237793.4163
226849.3692
215897.2153
204936.1682
193966.1062
182985.3405
171995.2328
160990.3156
149978.7247
138938.0021
127905.8301
116780.6492
105734.2643
)
;
    }
    inlet
    {
        type            zeroGradient;
    }
    outlet
    {
        type            fixedValue;
        value           uniform 100000;
    }
    procBoundary0to1
    {
        type            processor;
        value           nonuniform List<scalar> 
51
(
350468.0179
351940.0909
351908.5722
352151.3689
352582.444
353131.3443
353774.8495
354521.8279
355369.8485
356301.7142
357298.3963
358334.6931
359381.2401
360407.6843
361387.8315
362301.0948
363134.2288
353135.6151
353135.6151
353786.0753
354360.427
354865.2317
355308.957
355697.8172
356038.954
356337.7933
356599.1489
356827.6607
357026.6054
357199.4799
357348.8308
357476.9552
357586.1067
357678.0808
357754.5731
357817.1634
357867.1954
357905.8649
357934.3669
357953.7372
357964.9086
357968.7239
357965.9414
357957.24
357943.2304
357924.4822
357901.5604
357874.8752
357844.0465
357808.1004
357772.3893
)
;
    }
}


// ************************************************************************* //
