/*--------------------------------*- C++ -*----------------------------------*\
  =========                 |
  \\      /  F ield         | OpenFOAM: The Open Source CFD Toolbox
   \\    /   O peration     | Website:  https://openfoam.org
    \\  /    A nd           | Version:  7
     \\/     M anipulation  |
\*---------------------------------------------------------------------------*/
FoamFile
{
    version     2.0;
    format      ascii;
    class       surfaceScalarField;
    location    "0.0024";
    object      phi;
}
// * * * * * * * * * * * * * * * * * * * * * * * * * * * * * * * * * * * * * //

dimensions      [1 0 -1 0 0 0 0];

internalField   nonuniform List<scalar> 
2260
(
-7.89316781e-15
5.791596852e-11
-3.105987421e-14
1.694591542e-10
-6.886380173e-14
2.747485953e-10
-1.208327207e-13
3.740226607e-10
-1.866151186e-13
4.675143297e-10
-2.659307989e-13
5.554504151e-10
-3.585791951e-13
6.380513644e-10
-4.644261791e-13
7.155303772e-10
-5.833213097e-13
7.880930817e-10
-7.150631048e-13
8.559368529e-10
-8.594614091e-13
9.192499607e-10
-1.016261896e-12
9.782107825e-10
-1.185127922e-12
1.032986707e-09
-1.365598381e-12
1.083732993e-09
-1.557094867e-12
1.130591622e-09
-1.758918409e-12
1.1736901e-09
1.213140319e-09
-7.342426773e-15
5.792331095e-11
-2.890182268e-14
1.694807136e-10
-6.411599817e-14
2.747838095e-10
-1.126134969e-13
3.740711582e-10
-1.740791666e-13
4.675757954e-10
-2.483792935e-13
5.555247152e-10
-3.353306832e-13
6.381383157e-10
-4.34913106e-13
7.156299596e-10
-5.47052136e-13
7.882052208e-10
-6.716344839e-13
8.560614353e-10
-8.085142943e-13
9.193868405e-10
-9.574649764e-13
9.783597331e-10
-1.118157766e-12
1.033147399e-09
-1.290148189e-12
1.083904984e-09
-1.472864087e-12
1.130774337e-09
-1.665589588e-12
1.173882825e-09
-1.867537413e-12
1.213342267e-09
-2.077533476e-12
1.249247451e-09
-2.294194348e-12
1.281674879e-09
-2.515948281e-12
1.310681829e-09
-2.740702866e-12
1.336305011e-09
-2.965992033e-12
1.358558881e-09
-3.189050783e-12
1.377435482e-09
-3.406452924e-12
1.392902767e-09
-3.614571139e-12
1.404904528e-09
-3.809270257e-12
1.413359795e-09
-3.986140119e-12
1.418162826e-09
-4.140716478e-12
1.419184131e-09
-4.268272605e-12
1.416270619e-09
-4.3643362e-12
1.409247797e-09
-4.424593761e-12
1.397921341e-09
-4.445170778e-12
1.382079315e-09
-4.422890846e-12
1.361495445e-09
-4.355227729e-12
1.335932114e-09
-4.240650382e-12
1.305143796e-09
-4.078735951e-12
1.268880897e-09
-3.870370373e-12
1.226894538e-09
-3.617699548e-12
1.178939346e-09
-3.324350108e-12
1.12477851e-09
-2.995466972e-12
1.064187547e-09
-2.637763338e-12
9.969578515e-10
-2.259547051e-12
9.229005329e-10
-1.87072439e-12
8.41849718e-10
-1.48278074e-12
7.536650408e-10
-1.108716219e-12
6.582342414e-10
-7.629875104e-13
5.554746587e-10
-4.614530644e-13
4.453346844e-10
-2.212925671e-13
3.277938134e-10
-6.093136193e-14
2.028612748e-10
7.056967921e-11
-6.774636e-15
5.793008559e-11
-2.667699806e-14
1.695006159e-10
-5.923474342e-14
2.748163672e-10
-1.041339059e-13
3.741160573e-10
-1.611482892e-13
4.676328098e-10
-2.302358059e-13
5.555938027e-10
-3.113223601e-13
6.382194023e-10
-4.044106601e-13
7.157230479e-10
-5.095370746e-13
7.883103472e-10
-6.266570528e-13
8.561785552e-10
-7.556805956e-13
9.19515864e-10
-8.964244403e-13
9.78500477e-10
-1.04858968e-12
1.033299565e-09
-1.21174977e-12
1.084068144e-09
-1.385337414e-12
1.130947925e-09
-1.568692023e-12
1.17406618e-09
-1.760926505e-12
1.213534501e-09
-1.960876853e-12
1.249447401e-09
-2.167208304e-12
1.28188121e-09
-2.378375929e-12
1.310892996e-09
-2.592283778e-12
1.336518918e-09
-2.806639432e-12
1.358773236e-09
-3.018700477e-12
1.377647543e-09
-3.225236488e-12
1.393109303e-09
-3.422843106e-12
1.405102135e-09
-3.607530797e-12
1.413544483e-09
-3.775223827e-12
1.418330519e-09
-3.921637699e-12
1.419330545e-09
-4.0423665e-12
1.416391348e-09
-4.133248735e-12
1.409338679e-09
-4.190179321e-12
1.397978272e-09
-4.209552829e-12
1.382098688e-09
-4.188402029e-12
1.361474294e-09
-4.124344006e-12
1.335868056e-09
-4.015944405e-12
1.305035397e-09
-3.862838071e-12
1.26872779e-09
-3.665810379e-12
1.22669751e-09
-3.426884545e-12
1.17870042e-09
-3.149460296e-12
1.124501086e-09
-2.838370268e-12
1.063876457e-09
-2.499929348e-12
9.966194106e-10
-2.141964331e-12
9.225425679e-10
-1.773833488e-12
8.414815872e-10
-1.4063946e-12
7.532976019e-10
-1.051948438e-12
6.578797953e-10
-7.241869414e-13
5.551468972e-10
-4.381637799e-13
4.450486612e-10
-2.102204995e-13
3.275658701e-10
-5.79180116e-14
2.027089724e-10
7.05117612e-11
-6.191624772e-15
5.793627721e-11
-2.439752237e-14
1.695188218e-10
-5.422743909e-14
2.748461971e-10
-9.542070117e-14
3.741572506e-10
-1.478758916e-13
4.67685265e-10
-2.115871228e-13
5.55657514e-10
-2.8662735e-13
6.382944425e-10
-3.73025784e-13
7.158094464e-10
-4.708989582e-13
7.884082203e-10
-5.802879496e-13
8.562879442e-10
-7.011610563e-13
9.196367371e-10
-8.333820204e-13
9.786326979e-10
-9.766873987e-13
1.03344287e-09
-1.13067489e-12
1.084222131e-09
-1.294828342e-12
1.131112079e-09
-1.46847664e-12
1.174239828e-09
-1.6506686e-12
1.213716693e-09
-1.840308231e-12
1.249637041e-09
-2.036142257e-12
1.282077044e-09
-2.236545137e-12
1.311093399e-09
-2.439539948e-12
1.336721913e-09
-2.642983525e-12
1.35897668e-09
-2.844143857e-12
1.377848703e-09
-3.040018459e-12
1.393305177e-09
-3.22734942e-12
1.405289466e-09
-3.402372873e-12
1.413719506e-09
-3.561304644e-12
1.418489451e-09
-3.700016825e-12
1.419469257e-09
-3.814419982e-12
1.416505751e-09
-3.900610065e-12
1.409424869e-09
-3.954729354e-12
1.398032391e-09
-3.973406597e-12
1.382117365e-09
-3.953846108e-12
1.361454733e-09
-3.893809368e-12
1.33580802e-09
-3.791942554e-12
1.30493353e-09
-3.647933684e-12
1.268583782e-09
-3.462454622e-12
1.226512031e-09
-3.237406387e-12
1.178475372e-09
-2.975963683e-12
1.124239643e-09
-2.682652388e-12
1.063583146e-09
-2.363398006e-12
9.963001562e-10
-2.025561743e-12
9.222047317e-10
-1.677968199e-12
8.411339936e-10
-1.330846135e-12
7.529504798e-10
-9.958118103e-13
6.57544761e-10
-6.858226504e-13
5.548369081e-10
-4.15138884e-13
4.447779775e-10
-1.992749373e-13
3.273500062e-10
-5.493913893e-14
2.025646366e-10
7.045682206e-11
-5.5987074e-15
5.794187592e-11
-2.20752281e-14
1.695352984e-10
-4.910342256e-14
2.748732253e-10
-8.650709747e-14
3.741946543e-10
-1.343001417e-13
4.67733058e-10
-1.925036387e-13
5.557157175e-10
-2.613073394e-13
6.383632462e-10
-3.408525947e-13
7.158889916e-10
-4.312681513e-13
7.884986359e-10
-5.326827519e-13
8.563893588e-10
-6.451362889e-13
9.197491907e-10
-7.685415935e-13
9.787561033e-10
-9.0267326e-13
1.033577002e-09
-1.047192667e-12
1.084366651e-09
-1.201595512e-12
1.131266481e-09
-1.365155796e-12
1.174403388e-09
-1.536999159e-12
1.213888537e-09
-1.716064865e-12
1.249816106e-09
-1.901152912e-12
1.282262132e-09
-2.090609311e-12
1.311282856e-09
-2.282593457e-12
1.336913897e-09
-2.475035061e-12
1.359169122e-09
-2.665318645e-12
1.378038987e-09
-2.850668073e-12
1.393490527e-09
-3.027892953e-12
1.405466691e-09
-3.193497526e-12
1.413885111e-09
-3.343929226e-12
1.418639883e-09
-3.475286465e-12
1.419600615e-09
-3.583778304e-12
1.416614243e-09
-3.665677829e-12
1.409506769e-09
-3.717394185e-12
1.398084108e-09
-3.735807392e-12
1.382135779e-09
-3.718224226e-12
1.36143715e-09
-3.662567424e-12
1.335752363e-09
-3.567556421e-12
1.304838519e-09
-3.43289373e-12
1.268449119e-09
-3.259178021e-12
1.226338315e-09
-3.048169552e-12
1.178264363e-09
-2.802819769e-12
1.123994293e-09
-2.527350654e-12
1.063307677e-09
-2.227304314e-12
9.960001099e-10
-1.909599351e-12
9.218870267e-10
-1.582506992e-12
8.408069013e-10
-1.255640499e-12
7.526236133e-10
-9.399400088e-13
6.572290605e-10
-6.476424241e-13
5.545446105e-10
-3.922247813e-13
4.445225598e-10
-1.883816908e-13
3.271461631e-10
-5.197426637e-14
2.024282291e-10
7.040484779e-11
-4.99592819e-15
5.794687185e-11
-1.970776611e-14
1.695500102e-10
-4.388072088e-14
2.748973983e-10
-7.7431224e-14
3.742282048e-10
-1.20449636e-13
4.677760764e-10
-1.730416111e-13
5.557683094e-10
-2.354638315e-13
6.384256685e-10
-3.079713045e-13
7.159614991e-10
-3.907558981e-13
7.885814205e-10
-4.839927913e-13
8.564825957e-10
-5.87783381e-13
9.198529813e-10
-7.021068052e-13
9.788704267e-10
-8.267987427e-13
1.033701694e-09
-9.615422207e-13
1.084501394e-09
-1.105824614e-12
1.131410764e-09
-1.258966512e-12
1.17455653e-09
-1.420140653e-12
1.214049711e-09
-1.588382755e-12
1.249984349e-09
-1.762416875e-12
1.282436166e-09
-1.940708523e-12
1.311461147e-09
-2.121559893e-12
1.337094749e-09
-2.302875892e-12
1.359350438e-09
-2.48223879e-12
1.378218349e-09
-2.657067013e-12
1.393665355e-09
-2.824265924e-12
1.405633889e-09
-2.980621796e-12
1.414041466e-09
-3.122741356e-12
1.418782002e-09
-3.246986528e-12
1.41972486e-09
-3.349855126e-12
1.416717112e-09
-3.427769141e-12
1.409584683e-09
-3.477403826e-12
1.398133742e-09
-3.4958709e-12
1.382154246e-09
-3.480582244e-12
1.361421862e-09
-3.429606985e-12
1.335701387e-09
-3.341745033e-12
1.304750657e-09
-3.216681338e-12
1.268324055e-09
-3.054953654e-12
1.226176587e-09
-2.858177683e-12
1.178067587e-09
-2.629083104e-12
1.123765199e-09
-2.371591121e-12
1.063050185e-09
-2.090870372e-12
9.957193891e-10
-1.793390506e-12
9.215895468e-10
-1.486870156e-12
8.405003809e-10
-1.18031487e-12
7.52317058e-10
-8.839924437e-13
6.56932738e-10
-6.094137455e-13
5.542700318e-10
-3.692810152e-13
4.442824271e-10
-1.774733695e-13
3.269543554e-10
-4.900490239e-14
2.022997607e-10
7.035584289e-11
-4.381959509e-15
5.795125381e-11
-1.729965355e-14
1.695629279e-10
-3.857418898e-14
2.749186728e-10
-6.822507441e-14
3.742578556e-10
-1.063774441e-13
4.678142288e-10
-1.532774864e-13
5.558152095e-10
-2.091968672e-13
6.384815878e-10
-2.744989114e-13
7.160268011e-10
-3.494701625e-13
7.886563917e-10
-4.34341163e-13
8.565674667e-10
-5.292606826e-13
9.199479008e-10
-6.342625034e-13
9.789754285e-10
-7.492327303e-13
1.033816664e-09
-8.738625171e-13
1.084626024e-09
-1.007691196e-12
1.131544592e-09
-1.150093275e-12
1.174698932e-09
-1.300304055e-12
1.214199922e-09
-1.457405306e-12
1.25014145e-09
-1.620104291e-12
1.282598865e-09
-1.786989275e-12
1.311628032e-09
-1.956491111e-12
1.337264251e-09
-2.126523949e-12
1.35952047e-09
-2.294885226e-12
1.378386711e-09
-2.459104425e-12
1.393829574e-09
-2.616283106e-12
1.405791068e-09
-2.763469076e-12
1.414188652e-09
-2.897383371e-12
1.418915916e-09
-3.014671958e-12
1.419842148e-09
-3.112074808e-12
1.416814515e-09
-3.186222504e-12
1.409658831e-09
-3.234018211e-12
1.398181538e-09
-3.252763308e-12
1.382172991e-09
-3.240023675e-12
1.361409122e-09
-3.193981048e-12
1.335655345e-09
-3.113534777e-12
1.304670211e-09
-2.998313341e-12
1.268208834e-09
-2.848805289e-12
1.226027079e-09
-2.666481224e-12
1.177885263e-09
-2.453850534e-12
1.123552568e-09
-2.214536007e-12
1.06281087e-09
-1.953348922e-12
9.954582021e-10
-1.676276662e-12
9.213124746e-10
-1.390502718e-12
8.40214607e-10
-1.104421382e-12
7.520309767e-10
-8.276271461e-13
6.566559438e-10
-5.709012127e-13
5.540133059e-10
-3.461672086e-13
4.440576931e-10
-1.664842844e-13
3.267746725e-10
-4.601362273e-14
2.0217929e-10
7.030982927e-11
-3.761162351e-15
5.795501497e-11
-1.486492042e-14
1.695740316e-10
-3.321420114e-14
2.749370221e-10
-5.891383562e-14
3.742835553e-10
-9.213837082e-14
4.678474533e-10
-1.332578653e-13
5.55856329e-10
-1.825861642e-13
6.385309161e-10
-2.405617845e-13
7.160847768e-10
-3.075523521e-13
7.887233823e-10
-3.838640446e-13
8.566437784e-10
-4.697012584e-13
9.20033738e-10
-5.651355347e-13
9.790708628e-10
-6.700851932e-13
1.033921614e-09
-7.843028921e-13
1.084740242e-09
-9.073767109e-13
1.131667666e-09
-1.038726312e-12
1.174830282e-09
-1.177691209e-12
1.214338887e-09
-1.32329048e-12
1.250287049e-09
-1.474355732e-12
1.282749931e-09
-1.629604569e-12
1.311783281e-09
-1.787467453e-12
1.337422113e-09
-1.946014604e-12
1.359679018e-09
-2.103242871e-12
1.378543939e-09
-2.256732403e-12
1.393983064e-09
-2.403823973e-12
1.40593816e-09
-2.541788804e-12
1.414326617e-09
-2.667516572e-12
1.419041644e-09
-2.777924624e-12
1.419952556e-09
-2.869945297e-12
1.416906535e-09
-2.940448288e-12
1.409729334e-09
-2.98657878e-12
1.398227669e-09
-3.005772426e-12
1.382192184e-09
-2.995770439e-12
1.36139912e-09
-2.95486388e-12
1.335614438e-09
-2.882035909e-12
1.304597383e-09
-2.776876182e-12
1.268103674e-09
-2.639815966e-12
1.225890019e-09
-2.47218176e-12
1.177717629e-09
-2.276263952e-12
1.12335665e-09
-2.05539068e-12
1.062589997e-09
-1.814005316e-12
9.952168167e-10
-1.557614729e-12
9.21056084e-10
-1.29286148e-12
8.399498537e-10
-1.027523361e-12
7.517656386e-10
-7.705139097e-13
6.563989344e-10
-5.318754107e-13
5.537746674e-10
-3.227445991e-13
4.438485623e-10
-1.55348483e-13
3.266072764e-10
-4.298254128e-14
2.020669241e-10
7.026684673e-11
-3.135862074e-15
5.795815083e-11
-1.241269822e-14
1.695833085e-10
-2.78251307e-14
2.749524345e-10
-4.952346278e-14
3.743052536e-10
-7.778235174e-14
4.678757122e-10
-1.130354904e-13
5.558915821e-10
-1.557153816e-13
6.38573596e-10
-2.062581207e-13
7.161353195e-10
-2.651366904e-13
7.887822609e-10
-3.32718114e-13
8.567113598e-10
-4.092612665e-13
9.201102811e-10
-4.948872153e-13
9.791564887e-10
-5.895625657e-13
1.034016289e-09
-6.930899373e-13
1.084843769e-09
-8.051057373e-13
1.131779682e-09
-9.251320871e-13
1.174950308e-09
-1.052496808e-12
1.214466251e-09
-1.18626346e-12
1.250420816e-09
-1.325374323e-12
1.282889041e-09
-1.468689974e-12
1.311926597e-09
-1.614628911e-12
1.337568052e-09
-1.761441663e-12
1.35982583e-09
-1.907299333e-12
1.378689797e-09
-2.049875833e-12
1.39412564e-09
-2.186759227e-12
1.406075043e-09
-2.315374797e-12
1.414455233e-09
-2.432846891e-12
1.419159116e-09
-2.536371557e-12
1.420056081e-09
-2.62301288e-12
1.416993177e-09
-2.689905807e-12
1.409796227e-09
-2.734451387e-12
1.398272214e-09
-2.754187703e-12
1.382211921e-09
-2.747045094e-12
1.361391977e-09
-2.711426102e-12
1.335578819e-09
-2.64637187e-12
1.304532329e-09
-2.551469002e-12
1.268008771e-09
-2.427078706e-12
1.225765629e-09
-2.274385122e-12
1.177564936e-09
-2.095460289e-12
1.123177725e-09
-1.893358204e-12
1.062387895e-09
-1.672110423e-12
9.949955689e-10
-1.436760103e-12
9.208207337e-10
-1.193398001e-12
8.397064916e-10
-9.491765266e-13
7.515214171e-10
-7.123149901e-13
6.561620728e-10
-4.921009388e-13
5.535544533e-10
-2.988706668e-13
4.43655332e-10
-1.43998506e-13
3.264524042e-10
-3.989366902e-14
2.019628192e-10
7.022695306e-11
-2.508828383e-15
5.796065966e-11
-9.959159619e-15
1.695907588e-10
-2.241439876e-14
2.749648898e-10
-4.008547034e-14
3.743229247e-10
-6.336319272e-14
4.678989899e-10
-9.269768798e-14
5.559209166e-10
-1.286495832e-13
6.386095479e-10
-1.716936451e-13
7.161783636e-10
-2.223417552e-13
7.88832909e-10
-2.810448321e-13
8.567700629e-10
-3.481141298e-13
9.201773504e-10
-4.237202104e-13
9.792320948e-10
-5.078787684e-13
1.034100447e-09
-6.004424438e-13
1.084936333e-09
-7.01130578e-13
1.13188037e-09
-8.095192968e-13
1.175058697e-09
-9.249138125e-13
1.214581646e-09
-1.046507234e-12
1.250542409e-09
-1.173361905e-12
1.283015896e-09
-1.304364526e-12
1.312057599e-09
-1.438058768e-12
1.337701747e-09
-1.572876134e-12
1.359960648e-09
-1.707053081e-12
1.378823974e-09
-1.83846874e-12
1.394257056e-09
-1.96495402e-12
1.406201528e-09
-2.084035483e-12
1.414574314e-09
-2.193105202e-12
1.419268186e-09
-2.289617485e-12
1.420152593e-09
-2.370800922e-12
1.41707436e-09
-2.434041729e-12
1.409859467e-09
-2.476966443e-12
1.398315139e-09
-2.49726364e-12
1.382232218e-09
-2.493028983e-12
1.361387743e-09
-2.462813351e-12
1.335548604e-09
-2.405663224e-12
1.304475178e-09
-2.321187835e-12
1.267924296e-09
-2.209681336e-12
1.225654122e-09
-2.07219005e-12
1.177427444e-09
-1.910571268e-12
1.123016107e-09
-1.727600884e-12
1.062204925e-09
-1.52689614e-12
9.947948642e-10
-1.313028838e-12
9.206068664e-10
-1.091528055e-12
8.394849909e-10
-8.689065399e-13
7.512987956e-10
-6.526707597e-13
6.55945837e-10
-4.513310099e-13
5.533531136e-10
-2.743959799e-13
4.43478397e-10
-1.323618868e-13
3.263103701e-10
-3.672663513e-14
2.01867184e-10
7.019022642e-11
-1.884132666e-15
5.796254379e-11
-7.508824294e-15
1.695963835e-10
-1.699486096e-14
2.749743758e-10
-3.063502557e-14
3.743365649e-10
-4.891324957e-14
4.679172682e-10
-7.230518213e-14
5.559443086e-10
-1.014574377e-13
6.386387002e-10
-1.369427627e-13
7.162138489e-10
-1.792847548e-13
7.88875251e-10
-2.289790658e-13
8.568197572e-10
-2.864117788e-13
9.202347832e-10
-3.51800798e-13
9.792974838e-10
-4.252094901e-13
1.034173856e-09
-5.065710722e-13
1.085017694e-09
-5.956547697e-13
1.131969454e-09
-6.920339358e-13
1.175155076e-09
-7.951180385e-13
1.21468473e-09
-9.041840518e-13
1.250651475e-09
-1.018440973e-12
1.283130153e-09
-1.136751782e-12
1.31217591e-09
-1.257841851e-12
1.337822837e-09
-1.38033503e-12
1.360083141e-09
-1.502497909e-12
1.378946136e-09
-1.62244653e-12
1.394377005e-09
-1.738229389e-12
1.406317311e-09
-1.847520399e-12
1.414683605e-09
-1.947967647e-12
1.419368633e-09
-2.037241701e-12
1.420241867e-09
-2.112801853e-12
1.41714992e-09
-2.172268184e-12
1.409918934e-09
-2.213461098e-12
1.398356332e-09
-2.234260707e-12
1.382253017e-09
-2.232917131e-12
1.361386399e-09
-2.208136278e-12
1.335523823e-09
-2.158970232e-12
1.304426012e-09
-2.085057749e-12
1.267850383e-09
-1.986631663e-12
1.225555696e-09
-1.864606367e-12
1.177305419e-09
-1.720647104e-12
1.122872147e-09
-1.557205964e-12
1.062041483e-09
-1.377513878e-12
9.946151721e-10
-1.185657205e-12
9.204150097e-10
-9.86591736e-13
8.392859254e-10
-7.861715202e-13
7.510983754e-10
-5.911651158e-13
6.557508306e-10
-4.092749178e-13
5.531712234e-10
-2.491432348e-13
4.433182653e-10
-1.203537449e-13
3.261815806e-10
-3.345865501e-14
2.017802889e-10
7.015676777e-11
-1.261311506e-15
5.79638051e-11
-5.058648837e-15
1.696001808e-10
-1.158255327e-14
2.749808997e-10
-2.121034621e-14
3.743461926e-10
-3.44647039e-14
4.679305225e-10
-5.192005194e-14
5.559617639e-10
-7.423870484e-14
6.386610188e-10
-1.020833569e-13
7.162416935e-10
-1.360472302e-13
7.889092149e-10
-1.766434172e-13
8.568603534e-10
-2.242976584e-13
9.202824374e-10
-2.792913255e-13
9.793524775e-10
-3.417531556e-13
1.034236318e-09
-4.116586111e-13
1.0850876e-09
-4.888033237e-13
1.132046599e-09
-5.728338314e-13
1.175239107e-09
-6.632521924e-13
1.214775148e-09
-7.594549225e-13
1.250747678e-09
-8.606910819e-13
1.283231389e-09
-9.659189636e-13
1.312281138e-09
-1.074021908e-12
1.33793094e-09
-1.183764307e-12
1.360192883e-09
-1.293532074e-12
1.379055904e-09
-1.401670311e-12
1.394485143e-09
-1.506367134e-12
1.406422008e-09
-1.60552894e-12
1.414782767e-09
-1.697080755e-12
1.419460185e-09
-1.778825307e-12
1.420323612e-09
-1.848499197e-12
1.417219594e-09
-1.903994216e-12
1.409974429e-09
-1.943266479e-12
1.398395604e-09
-1.964424909e-12
1.382274176e-09
-1.965882546e-12
1.361387857e-09
-1.946470938e-12
1.335504411e-09
-1.90530881e-12
1.30438485e-09
-1.842050392e-12
1.267787125e-09
-1.756876655e-12
1.225470523e-09
-1.650577304e-12
1.17719912e-09
-1.524635718e-12
1.122746206e-09
-1.381171343e-12
1.061898019e-09
-1.223028612e-12
9.944570294e-10
-1.053800643e-12
9.202457817e-10
-8.778551508e-13
8.391099799e-10
-7.003641227e-13
7.509208843e-10
-5.273261282e-13
6.555777926e-10
-3.655957091e-13
5.53009493e-10
-2.229029651e-13
4.431755725e-10
-1.078710391e-13
3.260665487e-10
-3.006004569e-14
2.017024779e-10
7.012670772e-11
-6.405910596e-16
5.796444569e-11
-2.620959254e-15
1.696021612e-10
-6.198239081e-15
2.74984477e-10
-1.183499789e-14
3.743518294e-10
-2.007120651e-14
4.679387587e-10
-3.15986099e-14
5.559732913e-10
-4.706704523e-14
6.386764873e-10
-6.722213547e-14
7.162618486e-10
-9.271787401e-14
7.889347106e-10
-1.241192555e-13
8.568917548e-10
-1.618707814e-13
9.203201889e-10
-2.063034836e-13
9.793969102e-10
-2.575989353e-13
1.034287613e-09
-3.15758994e-13
1.08514576e-09
-3.806479332e-13
1.132111488e-09
-4.520006112e-13
1.175310459e-09
-5.293940737e-13
1.214852542e-09
-6.123641925e-13
1.250830648e-09
-7.001464234e-13
1.283319171e-09
-7.918652035e-13
1.312372857e-09
-8.865878715e-13
1.338025662e-09
-9.831167649e-13
1.360289412e-09
-1.080048889e-12
1.379152836e-09
-1.175966322e-12
1.39458106e-09
-1.26914629e-12
1.406515188e-09
-1.35776456e-12
1.414871385e-09
-1.440020731e-12
1.419542441e-09
-1.513860808e-12
1.420397452e-09
-1.577300655e-12
1.417283034e-09
-1.628500858e-12
1.410025629e-09
-1.665571751e-12
1.398432675e-09
-1.686851347e-12
1.382295456e-09
-1.690946532e-12
1.361391952e-09
-1.676783027e-12
1.335490248e-09
-1.643578217e-12
1.304351645e-09
-1.591011174e-12
1.267734558e-09
-1.519224252e-12
1.225398736e-09
-1.428901471e-12
1.177108797e-09
-1.321325211e-12
1.122638629e-09
-1.198312906e-12
1.061775007e-09
-1.062315022e-12
9.943210315e-10
-9.164249578e-13
9.200998917e-10
-7.644053989e-13
8.389579603e-10
-6.107182811e-13
7.507671972e-10
-4.605524868e-13
6.554276268e-10
-3.19863772e-13
5.528688042e-10
-1.954099859e-13
4.430511187e-10
-9.478816115e-14
3.259659269e-10
-2.649903624e-14
2.016341888e-10
7.010020868e-11
-2.549684165e-17
5.796447119e-11
-2.047537903e-16
1.696023405e-10
-8.692564204e-16
2.749851415e-10
-2.528810752e-15
3.74353489e-10
-5.773690269e-15
4.679420036e-10
-1.136740965e-14
5.55978885e-10
-2.000258267e-14
6.386851224e-10
-3.244234496e-14
7.162742884e-10
-4.940352143e-14
7.889516718e-10
-7.149280271e-14
8.569138441e-10
-9.920158822e-14
9.203478977e-10
-1.328894444e-13
9.79430598e-10
-1.727717136e-13
1.034327496e-09
-2.189181015e-13
1.085191906e-09
-2.712579306e-13
1.132163827e-09
-3.295958757e-13
1.175368797e-09
-3.936434983e-13
1.214916589e-09
-4.62938832e-13
1.250899943e-09
-5.368365714e-13
1.283393069e-09
-6.145956804e-13
1.312450616e-09
-6.954594976e-13
1.338106526e-09
-7.782897275e-13
1.360372242e-09
-8.618973507e-13
1.379236444e-09
-9.450752562e-13
1.394664238e-09
-1.026245864e-12
1.406596359e-09
-1.103838555e-12
1.414948978e-09
-1.176281363e-12
1.419614884e-09
-1.241758089e-12
1.420462929e-09
-1.298530815e-12
1.417339807e-09
-1.344997507e-12
1.410072096e-09
-1.37949348e-12
1.398467171e-09
-1.400564891e-12
1.382316527e-09
-1.407039243e-12
1.361398426e-09
-1.397921629e-12
1.33548113e-09
-1.372553162e-12
1.304326277e-09
-1.330652016e-12
1.267692657e-09
-1.272337052e-12
1.225340421e-09
-1.198221245e-12
1.177034681e-09
-1.109364023e-12
1.122549772e-09
-1.007307337e-12
1.06167295e-09
-8.941089261e-13
9.942078331e-10
-7.723586666e-13
9.199781414e-10
-6.45197891e-13
8.388307996e-10
-5.163473124e-13
7.506383467e-10
-3.901385308e-13
6.553014181e-10
-2.715646674e-13
5.527502304e-10
-1.663340433e-13
4.429458881e-10
-8.093293249e-14
3.258805258e-10
-2.272037577e-14
2.015759762e-10
7.007748831e-11
5.82639397e-16
5.796388855e-11
2.181596604e-15
1.696007415e-10
4.397088275e-15
2.74982926e-10
6.691664142e-15
3.743511944e-10
8.393538206e-15
4.679403017e-10
8.727762849e-15
5.559785508e-10
6.909276422e-15
6.386869409e-10
2.204604807e-15
7.162789931e-10
-6.169817306e-15
7.889600462e-10
-1.885424892e-14
8.569265285e-10
-3.637492125e-14
9.203654184e-10
-5.912968328e-14
9.794533528e-10
-8.737972053e-14
1.034355746e-09
-1.212502655e-13
1.085225777e-09
-1.607333268e-13
1.13220331e-09
-2.057310477e-13
1.175413795e-09
-2.560406305e-13
1.214966899e-09
-3.112102278e-13
1.250955113e-09
-3.707578251e-13
1.283452617e-09
-4.34110784e-13
1.312513969e-09
-5.005476677e-13
1.338172963e-09
-5.691336955e-13
1.360440828e-09
-6.388917351e-13
1.379306202e-09
-7.08726875e-13
1.394734073e-09
-7.773045125e-13
1.406664936e-09
-8.433263029e-13
1.415015e-09
-9.053671522e-13
1.419676925e-09
-9.619011471e-13
1.420519463e-09
-1.011481156e-12
1.417389387e-09
-1.052679435e-12
1.410113294e-09
-1.084102652e-12
1.398498594e-09
-1.10451664e-12
1.382336941e-09
-1.112959221e-12
1.361406869e-09
-1.108564953e-12
1.335476736e-09
-1.090799619e-12
1.304308512e-09
-1.059440614e-12
1.267661298e-09
-1.014604248e-12
1.225295584e-09
-9.568446901e-13
1.176976921e-09
-8.870246378e-13
1.122479952e-09
-8.064243929e-13
1.06159235e-09
-7.167206806e-13
9.941181294e-10
-6.200017613e-13
9.198814225e-10
-5.187753793e-13
8.387295732e-10
-4.159899777e-13
7.505355612e-10
-3.150659804e-13
6.552004941e-10
-2.199549752e-13
5.526551194e-10
-1.352128807e-13
4.42861146e-10
-6.609316162e-14
3.258114061e-10
-1.867818848e-14
2.015285612e-10
7.005881012e-11
1.180649796e-15
5.79627079e-11
4.529549299e-15
1.695973926e-10
9.601582892e-15
2.74977854e-10
1.58122874e-14
3.743449837e-10
2.241272132e-14
4.679337013e-10
2.864871829e-14
5.559723148e-10
3.365747258e-14
6.386819322e-10
3.666923679e-14
7.162759813e-10
3.693140341e-14
7.88959784e-10
3.373884904e-14
8.569297211e-10
2.65355389e-14
9.203726217e-10
1.488788911e-14
9.794650005e-10
-1.509315285e-15
1.034372143e-09
-2.283473765e-14
1.085247102e-09
-4.915935018e-14
1.132229635e-09
-8.047854466e-14
1.175445114e-09
-1.165862542e-13
1.215003007e-09
-1.57177303e-13
1.250995704e-09
-2.018803026e-13
1.28349732e-09
-2.50300428e-13
1.312562389e-09
-3.017352388e-13
1.338224398e-09
-3.554733731e-13
1.360494567e-09
-4.107686508e-13
1.379361497e-09
-4.666099557e-13
1.394789915e-09
-5.219300683e-13
1.406720256e-09
-5.757080208e-13
1.415068778e-09
-6.266664675e-13
1.419727883e-09
-6.735798204e-13
1.420566376e-09
-7.153063853e-13
1.417431113e-09
-7.505899841e-13
1.410148578e-09
-7.783255083e-13
1.39852633e-09
-7.975253153e-13
1.382356141e-09
-8.074140974e-13
1.361416758e-09
-8.07308733e-13
1.33547663e-09
-7.96806373e-13
1.304298009e-09
-7.75766165e-13
1.267640257e-09
-7.443453019e-13
1.225264163e-09
-7.030170266e-13
1.176935593e-09
-6.525079803e-13
1.122429443e-09
-5.938520285e-13
1.061533694e-09
-5.283654971e-13
9.940526428e-10
-4.576449445e-13
9.198107019e-10
-3.835585505e-13
8.386554868e-10
-3.082533834e-13
7.504602561e-10
-2.34179099e-13
6.551264198e-10
-1.641507175e-13
5.52585091e-10
-1.01442154e-13
4.427984375e-10
-4.992073071e-14
3.257598846e-10
-1.424141493e-14
2.014928819e-10
7.00445687e-11
1.768563191e-15
5.796093934e-11
6.844311501e-15
1.695923169e-10
1.473913323e-14
2.749699591e-10
2.481724712e-14
3.743349056e-10
3.628273061e-14
4.679222358e-10
4.83787528e-14
5.559602188e-10
6.0208621e-14
6.386701023e-10
7.094303065e-14
7.162652469e-10
7.985235897e-14
7.889508747e-10
8.623210862e-14
8.569233413e-10
8.946905672e-14
9.203693847e-10
8.909918273e-14
9.794653703e-10
8.477734119e-14
1.034376465e-09
7.625534646e-14
1.085255624e-09
6.338415985e-14
1.132242506e-09
4.61550118e-14
1.175462343e-09
2.468857095e-14
1.215024473e-09
-8.352020455e-16
1.251021228e-09
-3.019788157e-14
1.283526682e-09
-6.305760407e-14
1.312595249e-09
-9.8870394e-14
1.338260211e-09
-1.371065814e-13
1.360532803e-09
-1.772042938e-13
1.379401595e-09
-2.183210159e-13
1.394831031e-09
-2.596286602e-13
1.406761564e-09
-3.003400399e-13
1.415109489e-09
-3.394197831e-13
1.419766963e-09
-3.759089637e-13
1.420602865e-09
-4.089387778e-13
1.417464143e-09
-4.375039681e-13
1.410177143e-09
-4.607644742e-13
1.39854959e-09
-4.780219539e-13
1.382373398e-09
-4.886584877e-13
1.361427394e-09
-4.922137922e-13
1.335480186e-09
-4.884387431e-13
1.304294234e-09
-4.773007016e-13
1.267629119e-09
-4.590380151e-13
1.225245901e-09
-4.340599213e-13
1.176910615e-09
-4.029992491e-13
1.122398382e-09
-3.666823462e-13
1.061497377e-09
-3.26102984e-13
9.940120635e-10
-2.823966229e-13
9.197669956e-10
-2.36806976e-13
8.386098971e-10
-1.906679765e-13
7.504141171e-10
-1.454058519e-13
6.550811576e-10
-1.025908147e-13
5.52542276e-10
-6.403959399e-14
4.427598862e-10
-3.198750563e-14
3.257278325e-10
-9.345661752e-15
2.014702401e-10
7.003522304e-11
2.348669609e-15
5.795859067e-11
9.129594781e-15
1.695855359e-10
1.980789202e-14
2.749592809e-10
3.36859151e-14
3.743210275e-10
4.998302732e-14
4.679059387e-10
6.786984888e-14
5.55942332e-10
8.649128289e-14
6.386514809e-10
1.049765109e-13
7.162467617e-10
1.225525972e-13
7.889332986e-10
1.38538832e-13
8.569073551e-10
1.523168995e-13
9.203556067e-10
1.633787595e-13
9.794543085e-10
1.713266266e-13
1.034368517e-09
1.758655907e-13
1.085251085e-09
1.768042943e-13
1.132241568e-09
1.740881076e-13
1.17546506e-09
1.677158838e-13
1.215030845e-09
1.57772242e-13
1.251031171e-09
1.443099751e-13
1.283540145e-09
1.276521595e-13
1.312611907e-09
1.081457773e-13
1.338279717e-09
8.610148653e-14
1.360554847e-09
6.20034861e-14
1.379425693e-09
3.644041096e-14
1.394856594e-09
9.964456727e-15
1.40678804e-09
-1.677894804e-14
1.415136233e-09
-4.305930941e-14
1.419793243e-09
-6.8216603e-14
1.420628023e-09
-9.160181731e-14
1.417487528e-09
-1.125144442e-13
1.410198055e-09
-1.303863504e-13
1.398567462e-09
-1.448104938e-13
1.382387822e-09
-1.553633603e-13
1.361437947e-09
-1.618192614e-13
1.335486642e-09
-1.641081422e-13
1.304296523e-09
-1.623347313e-13
1.267627346e-09
-1.568289529e-13
1.225240395e-09
-1.479964971e-13
1.176901783e-09
-1.36407935e-13
1.122386794e-09
-1.227282546e-13
1.061483697e-09
-1.076764262e-13
9.939970116e-10
-9.197214667e-14
9.197512913e-10
-7.626847157e-14
8.385941935e-10
-6.10935538e-14
7.503989422e-10
-4.681045472e-14
6.550668746e-10
-3.363467547e-14
5.525291002e-10
-2.17290675e-14
4.427479806e-10
-1.142117737e-14
3.257175246e-10
-3.589928626e-15
2.014624088e-10
7.003163311e-11
2.919378754e-15
5.795567129e-11
1.137310865e-14
1.695770822e-10
2.478131769e-14
2.749458726e-10
4.239125901e-14
3.743034176e-10
6.344507191e-14
4.678848849e-10
8.704382285e-14
5.559187332e-10
1.123874255e-13
6.386261373e-10
1.385772402e-13
7.162205718e-10
1.64832159e-13
7.889070437e-10
1.904471448e-13
8.568817401e-10
2.148241037e-13
9.203312297e-10
2.374289728e-13
9.794317036e-10
2.578263446e-13
1.03434812e-09
2.756932623e-13
1.085233218e-09
2.907904424e-13
1.13222647e-09
3.0296657e-13
1.175452884e-09
3.121406013e-13
1.215021671e-09
3.182488523e-13
1.251025063e-09
3.213205584e-13
1.283537073e-09
3.215268028e-13
1.3126117e-09
3.190571584e-13
1.338282187e-09
3.140122386e-13
1.360559892e-09
3.067861863e-13
1.379432919e-09
2.977145563e-13
1.394865666e-09
2.870712131e-13
1.406798683e-09
2.753579637e-13
1.415147946e-09
2.629944875e-13
1.419805607e-09
2.503213567e-13
1.420640696e-09
2.377870238e-13
1.417500063e-09
2.257613222e-13
1.410210081e-09
2.145205966e-13
1.398578703e-09
2.042030636e-13
1.38239814e-09
1.949692109e-13
1.361447181e-09
1.868077266e-13
1.335494803e-09
1.795806335e-13
1.30430375e-09
1.729851773e-13
1.267633941e-09
1.666097375e-13
1.22524677e-09
1.599709434e-13
1.176908421e-09
1.525044638e-13
1.12239426e-09
1.43631929e-13