/*--------------------------------*- C++ -*----------------------------------*\
  =========                 |
  \\      /  F ield         | OpenFOAM: The Open Source CFD Toolbox
   \\    /   O peration     | Website:  https://openfoam.org
    \\  /    A nd           | Version:  7
     \\/     M anipulation  |
\*---------------------------------------------------------------------------*/
FoamFile
{
    version     2.0;
    format      ascii;
    class       volScalarField;
    location    "0.0024";
    object      rho;
}
// * * * * * * * * * * * * * * * * * * * * * * * * * * * * * * * * * * * * * //

dimensions      [1 -3 0 0 0 0 0];

internalField   nonuniform List<scalar> 
1167
(
933.9265883
933.8540231
933.698508
933.4688115
933.1702833
932.8071852
932.3841367
931.905037
931.3739469
930.7947891
930.1713092
929.5072313
928.8061583
928.0715745
927.3068642
926.5153229
925.7001714
933.8082599
933.7357459
933.5803433
933.3509243
933.0526615
932.6899869
932.2673456
931.7888486
931.258465
930.6801131
930.0575708
929.3945708
928.6947252
927.961529
927.1983768
926.4085737
925.5954163
924.7621516
923.9116952
923.0470404
922.1712554
921.2869125
920.3967951
919.5034794
918.6093066
917.7167883
916.8278588
915.9447134
915.0691893
914.2029523
913.3477852
912.5049729
911.6758576
910.8616741
910.0632676
909.2815067
908.5172639
907.7710136
907.0432062
906.3341808
905.6441633
904.9732452
904.321466
903.6887216
903.0748347
902.4794615
901.9023042
901.3428672
900.8007079
900.2752354
933.6900544
933.6175953
933.4623132
933.2332092
932.935202
932.5729861
932.150757
931.6728886
931.1432402
930.5657258
929.9441558
929.2822705
928.5836896
927.8519193
927.0903639
926.3023397
925.491249
924.6601323
923.8120131
922.9499789
922.0768969
921.1954361
920.308434
919.4182945
918.5275118
917.6384069
916.7529894
915.8734937
915.0016013
914.1390882
913.2875936
912.4484592
911.6230491
910.8124825
910.0176475
909.2394045
908.4786521
907.7357812
907.0112757
906.3054717
905.6185912
904.9507238
904.30191
903.6720543
903.0609571
902.4682815
901.893748
901.3368524
900.7971561
900.2740696
933.5719766
933.4995762
933.3445336
933.1156456
932.8179099
932.4561714
932.0344867
931.5571629
931.0282786
930.4516336
929.83107
929.1703353
928.4730564
927.7427495
926.9828285
926.1967217
925.3876295
924.5586922
923.7129592
922.8535453
921.9831826
921.1046859
920.2207394
919.3337757
918.4463767
917.5606747
916.6788115
915.8028839
914.9346002
914.0757839
913.2279325
912.3924446
911.5707068
910.763724
909.9724275
909.1977059
908.4403752
907.7008524
906.9796185
906.2770072
905.5932358
904.9283926
904.2825313
903.6555333
903.0472004
902.4571948
901.885263
901.3308876
900.7936339
900.2729135
933.4540316
933.3817636
933.2269172
932.9982395
932.7008903
932.339548
931.918443
931.4417273
930.9135856
930.3378418
929.7183187
929.0587704
928.3628302
927.6340246
926.8758466
926.091617
925.2845568
924.4578289
923.6145793
922.7577347
921.8901072
921.0145998
920.1337021
919.2499369
918.3658919
917.4835818
916.6052652
915.7328752
914.868177
914.0130309
913.1687944
912.3369321
911.5188245
910.7153938
909.9276036
909.1563771
908.4024309
907.6662256
906.948234
906.2487867
905.568097
904.9062551
904.2633234
903.639152
903.0335597
902.4462131
901.8768493
901.324973
900.7901413
900.2717672
933.336344
933.2641519
933.1094508
932.8809959
932.5840771
932.2231215
931.8026198
931.3266137
930.7992034
930.2243558
929.6059069
928.9475803
928.2530151
927.5258164
926.7693788
925.9870261
925.18203
924.3575591
923.5167982
922.6625434
921.7976865
920.9251563
920.0473131
919.1668047
918.2860482
917.4071188
916.5323325
915.6634609
914.8023718
913.9508208
913.1101727
912.2819469
911.4673962
910.6674869
909.8831721
909.1154094
908.3648172
907.6318997
906.9171211
906.2208098
905.5431746
904.8843262
904.24428
903.6229106
903.0200355
902.4353251
901.8685075
901.3191089
900.7866785
900.2706306
933.2188086
933.1466869
932.9921397
932.7639504
932.4674469
932.1069314
931.6870221
931.2117509
930.6851777
930.1112593
929.4938854
928.8368235
928.1437156
927.4180955
926.6633936
925.8829498
925.0800481
924.2579417
923.4196135
922.5679696
921.7059678
920.836346
919.961563
919.0843105
918.2068366
917.3313188
916.4600051
915.5946328
914.7371425
913.8891472
913.0520604
912.2274416
911.4164178
910.6199998
909.839145
909.0748005
908.3275327
907.5978736
906.8862795
906.1930763
905.5184748
904.8625874
904.2254016
903.6068098
903.0066282
902.4245313
901.8602377
901.3132954
900.7832457
900.2695039
933.1014213
933.029374
932.8749894
932.6471751
932.3510045
931.9910368
931.571655
931.0971443
930.5714367
929.9985185
929.3822849
928.7265101
928.0348433
927.3108248
926.557892
925.7793893
924.9786501
924.1588934
923.3230211
922.4740063
921.6148704
920.7481637
919.8764742
919.002446
918.1282485
917.2561634
916.3882748
915.5263829
914.6724684
913.8280041
912.994452
912.1734117
911.3658856
910.5729294
909.7955323
909.0345489
908.2905759
907.5641465
906.8557088
906.1655861
905.494009
904.8410391
904.2066885
903.59085
902.9933383
902.4138319
901.8520404
901.3075329
900.7798429
900.2683871
932.9841872
932.9122184
932.7580419
932.5305772
932.2347554
931.8753551
931.4565571
930.9827987
930.4579853
929.8860981
929.2710373
928.6165821
927.9263894
927.204006
926.4528751
925.6763447
924.8778548
924.0604099
923.2270144
922.3807183
921.52439
920.6606044
919.79206
918.9212038
918.0502761
917.1816121
916.3171338
915.4587271
914.6083432
913.7673858
912.9373784
912.1198529
911.3157964
910.5262731
909.7523044
908.9946529
908.2539462
907.5307181
906.8254088
906.1383422
905.4697601
904.8196819
904.1881413
903.5750318
902.9801664
902.4032276
901.8439184
901.3018217
900.7764705
900.2672802
932.8671118
932.7952256
932.6413561
932.4141616
932.1187263
931.7598921
931.3417919
930.8687184
930.3448278
929.774002
929.1601457
928.5070425
927.8183565
927.0976406
926.348343
925.5739052
924.777599
923.9624885
923.1315894
922.2880452
921.4345202
920.573662
919.7082637
918.8405768
917.9729432
917.1076578
916.246575
915.3916778
914.5447609
913.7072871
912.880821
912.0667616
911.2661471
910.4800287
909.7094595
908.9551116
908.2176429
907.4975881
906.7953799
906.1113669
905.4457286
904.7985165
904.1697609
903.5593559
902.9671131
902.3927189
901.8358749
901.2961619
900.7731284
900.2661833
932.7502462
932.6785249
932.5248456
932.2979334
932.0030009
931.6446522
931.2272719
930.7549897
930.2319686
929.662234
929.0496132
928.3978937
927.7107464
926.9917295
926.2443558
925.4719934
924.677881
923.8651279
923.0368039
922.1959646
921.3452555
920.4873881
919.6250774
918.7605578
917.8962522
917.0342934
916.1765919
915.325186
914.4817158
913.6477033
912.8247534
912.0141344
911.2169353
910.4342353
909.6669966
908.9159243
908.1816658
907.4647568
906.7656224
906.0846359
905.4219154
904.7775436
904.151548
903.5438231
902.9541792
902.3823063
901.8279051
901.2905541
900.7698171
900.2650965
932.633632
932.5620003
932.4085154
932.1818979
931.8874839
931.5296403
931.1130016
930.6415681
930.1194815
929.5507976
928.9394428
928.2891385
927.6035617
926.8863365
926.1408942
925.3705922
924.5786989
923.7683253
922.9426299
922.1044718
921.2565896
920.4017479
919.5424945
918.6811397
917.8201551
916.9615125
916.1071832
915.2592463
914.4192031
913.5886393
912.7691722
911.9619686
911.1681587
910.3888535
909.6249147
908.8770908
908.1460153
907.4322252
906.7361589
906.0581499
905.3983213
904.7567644
904.1335038
903.5284345
902.9413655
902.3719908
901.8200096
901.2849987
900.7665367
900.2640198
932.5171915
932.445653
932.2923705
932.0661364
931.7721806
931.4149399
930.9989852
930.5284253
930.0073482
929.4397986
928.8296995
928.1808417
927.4969015
926.7814399
926.0379145
925.2696999
924.4800497
923.6721367
922.8490261
922.0135619
921.1685271
920.3167055
919.4605104
918.6023529
917.7446449
916.8893086
916.0384006
915.1938533
914.3572182
913.530127
912.7140742
911.9102617
911.1198158
910.3438789
909.5832136
908.8386112
908.110692
907.399994
906.7069764
906.0319104
905.3749476
904.7361801
904.1156295
903.5131913
902.9286733
902.3617731
901.8121893
901.2794961
900.7632876
900.2629534
932.4009292
932.3294877
932.1764161
931.9506223
931.6570959
931.3005226
930.8852269
930.4155654
929.8955248
929.3291527
928.720376
928.0729903
927.3906757
926.676998
925.9354163
925.1693146
924.3819307
923.5765283
922.7559876
921.9232291
921.0811199
920.232257
919.3791207
918.5241961
917.6697154
916.8176759
915.9701759
915.1290024
914.2957572
913.4721177
912.6594572
911.8590126
911.0719318
910.2993102
909.5418928
908.8004859
908.0756966
907.3680714
906.6780686
906.0059193
905.3517966
904.7157928
904.097927
903.4980952
902.9161039
902.3516547
901.804445
901.2740472
900.7600701
900.2618974
932.2848503
932.2135096
932.0607391
931.8353155
931.5422343
931.1863465
930.7717959
930.3029925
929.7840148
929.2188481
928.6114219
927.9655367
927.2848765
926.5730104
925.8333989
925.0694345
924.2844304
923.4814656
922.6635104
921.8334695
920.9942947
920.148396
919.2983191
918.4466229
917.5953623
916.7466098
915.9025044
915.0646895
914.2348165
913.4146087
912.6053193
911.8082199
911.0244991
910.2551474
909.5009528
908.7627158
908.0410305
907.3364754
906.6494378
905.980179
905.3288705
904.695605
904.0803987
903.4831484
902.9036593
902.3416371
901.796778
901.2686528
900.7568849
900.2608521
932.1689596
932.0977668
931.9453013
931.7202211
931.4276652
931.0724156
930.6586803
930.1907103
929.6728212
929.108887
928.502839
927.8584824
927.1795045
926.4694773
925.7318622
924.9701063
924.1874588
923.3869461
922.5715936
921.7443553
920.9080437
920.0651156
919.2181537
918.3696288
917.5215827
916.676168
915.8353808
915.0009104
914.1744432
913.3575976
912.5516586
911.7578824
910.9774976
910.2113915
909.4603949
908.7253026
908.0066958
907.3051848
906.6210866
905.9546927
905.3061727
904.6756198
904.0630476
903.4683536
902.891342
902.3317224
901.7891901
901.2633141
900.7537326
900.2598175
932.053352
931.9822988
931.8300685
931.6053438
931.3133879
930.9587341
930.5458352
930.0788345
929.561947
928.9992716
928.394629
927.7518286
927.0745602
926.3663987
925.6308374
924.8713297
924.0910082
923.2929666
922.4802325
921.6558215
920.8223629
919.9824105
919.1385893
918.2932086
917.4483712
916.6062877
915.7688024
914.9376624
914.1145929
913.3010828
912.4984742
911.7080142
910.930928
910.1680441
909.4202214
908.688249
907.9727173
907.2742033
906.593019
905.9294645
905.2837073
904.6558414
904.0458777
903.4537146
902.8791553
902.3219134
901.7816834
901.2580327
900.7506142
900.2587941
931.9379735
931.8670324
931.7150454
931.490688
931.1993464
930.8453061
930.4332643
929.9672604
929.4514844
928.8900043
928.2867937
927.6455762
926.970044
926.263815
925.5303632
924.7730522
923.9950758
923.199522
922.3894847
921.5678492
920.7372497
919.900284
919.0595964
918.2173577
917.3757234
916.5369616
915.7027667
914.8749433
914.0552554
913.2450632
912.4457657
911.6586349
910.8847917
910.1251073
909.3804351
908.6515586
907.9390899
907.2435353
906.5652398
905.9044992
905.2614794
904.6362747
904.0288938
903.439236
902.8671034
902.3122137
901.7742608
901.2528107
900.747531
900.2577822
931.8227978
931.7519727
931.6002373
931.3763794
931.0855446
930.7322398
930.3209713
929.8559871
929.3413734
928.7811998
928.1793985
927.5397822
926.8660391
926.1617431
925.430364
924.6752712
923.8996587
923.1066089
922.299305
921.4804338
920.6527
919.818794
918.981171
918.1420719
917.3037043
916.468187
915.6372722
914.8127897
913.9964287
913.189538
912.3935335
911.609712
910.839091
910.0825844
909.3410401
908.6152363
907.9058064
907.213187
906.5377556
905.879804
905.2394961
904.616927
904.012103
903.4249242
902.855192
902.3026283
901.7669264
901.2476511
900.7444847
900.2567825
931.7078298
931.6371243
931.4856501
931.2623044
930.9719866
930.6194438
930.2089597
929.7450173
929.2315898
928.6727479
928.0724265
927.4344404
926.7624808
926.0601209
925.3308376
924.5779842
923.804755
923.0143076
922.2096646
921.3935693
920.5687087
919.7378656
918.903308
918.0673466
917.232242
916.3999601
915.5723158
914.75118
913.938111
913.1345064
912.3417826
911.5612458
910.7938275
910.0404781
909.3020403
908.5793172
907.8728706
907.1831631
906.5105719
905.8553847
905.2177637
904.5978047
903.9955116
903.4107854
902.8434269
902.2931621
901.7596842
901.2425568
900.7414772
900.2557955
931.5930745
931.5224925
931.3714098
931.1484629
930.8586763
930.5069123
930.0973254
929.6343532
929.1221347
928.564648
927.9658308
927.3294994
926.6593469
925.9589458
925.2317802
924.4811866
923.7103828
922.9225393
922.120558
921.3072495
920.4853284
919.6574901
918.8259997
917.9931865
917.161328
916.3322746
915.5078912
914.69009
913.8802996
913.0799665
912.2905481
911.5132346
910.7490006
909.998789
909.2634373
908.5437746
907.840287
907.1534686
906.4836942
905.8312474
905.1962887
904.5789144
903.9791262
903.396826
902.831814
902.2838204
901.7525384
901.2375309
900.7385102
900.2548218
931.4785462
931.4081678
931.2573963
931.0348585
930.7457074
930.3946476
929.986
929.5240088
929.0130072
928.4568983
927.8596084
927.2249548
926.5566319
925.8582113
925.1331838
924.3848686
923.6165716
922.8312807
922.0319725
921.2214599
920.4025084
919.5776514
918.7492288
917.9196184
917.0909437
916.2651113
915.4440168
914.6295001
913.8229745
913.0258974
912.2397666
911.4656574
910.7045885
909.9574942
909.2252155
908.508582
907.8080305
907.1240776
906.4570962
905.8073658
905.1750455
904.5602322
903.9629254
903.3830279
902.8203391
902.2745932
901.7454829
901.2325744
900.7355826
900.2538613
931.3643126
931.2940635
931.1435714
930.9214527
930.6329725
930.2826106
929.8749203
929.4140313
928.9041667
928.3494575
927.7537173
927.1207635
926.4542918
925.7578721
925.0350011
924.2890677
923.5232039
922.740476
921.9438474
921.1361747
920.3201528
919.4982718
918.6729084
917.8464878
917.0209809
916.1983495
915.3805446
914.5692609
913.7659706
912.9721181
912.1892403
911.4183012
910.6603628
909.9163523
909.1871451
908.473482
907.7758419
907.0947352
906.4305335
905.7835131
905.1538313
904.5415854
903.9467711
903.3692898
902.8089368
902.2654465
901.7385077
901.2276885
900.7327023
900.2529174
931.2221741
931.1520883
931.0019494
930.7804174
930.4927281
930.1432945
929.736768
929.2772705
928.7689653
928.2159191
927.6221034
926.9912886
926.3271444
925.6332694
924.9131813
924.1701414
923.4073253
922.6278184
921.8345595
921.0305071
920.2181321
919.4000061
918.5785666
917.7561218
916.9346352
916.1160758
915.3024634
914.4953145
913.6961736
912.9065355
912.1277855
911.3609483
910.6070717
909.8670718
909.1418619
908.4320725
907.7382281
907.0608252
906.4002264
905.7566951
905.1303764
904.5213558
903.9296124
903.3550332
902.7973975
902.2564305
901.7318121
901.2231143
900.7300615
900.2520636
)
;

boundaryField
{
    front_top
    {
        type            wedge;
    }
    front_middle
    {
        type            wedge;
    }
    front_bottom
    {
        type            wedge;
    }
    back_top
    {
        type            wedge;
    }
    back_middle
    {
        type            wedge;
    }
    back_bottom
    {
        type            wedge;
    }
    axis_top
    {
        type            symmetryPlane;
    }
    axis_middle
    {
        type            symmetryPlane;
    }
    axis_bottom
    {
        type            symmetryPlane;
    }
    wall_top
    {
        type            calculated;
        value           nonuniform 0();
    }
    wall_middle
    {
        type            calculated;
        value           nonuniform 0();
    }
    wall_bottom
    {
        type            calculated;
        value           uniform 900.0184441;
    }
    inlet
    {
        type            calculated;
        value           nonuniform 0();
    }
    outlet
    {
        type            calculated;
        value           nonuniform List<scalar> 
50
(
931.2221741
931.1520883
931.0019494
930.7804174
930.4927281
930.1432945
929.736768
929.2772705
928.7689653
928.2159191
927.6221034
926.9912886
926.3271444
925.6332694
924.9131813
924.1701414
923.4073253
922.6278184
921.8345595
921.0305071
920.2181321
919.4000061
918.5785666
917.7561218
916.9346352
916.1160758
915.3024634
914.4953145
913.6961736
912.9065355
912.1277855
911.3609483
910.6070717
909.8670718
909.1418619
908.4320725
907.7382281
907.0608252
906.4002264
905.7566951
905.1303764
904.5213558
903.9296124
903.3550332
902.7973975
902.2564305
901.7318121
901.2231143
900.7300615
900.2520636
)
;
    }
    procBoundary0to1
    {
        type            processor;
        value           nonuniform List<scalar> 
51
(
934.0450347
933.9724219
933.8168022
933.5869437
933.2880621
932.9246704
932.5011245
932.0214482
931.4896823
930.9098207
930.2854685
929.6203334
928.9180141
928.1820508
927.4158227
926.6225825
925.8055428
924.8647516
924.8647516
924.0119876
923.1447857
922.2662652
921.379055
920.4858298
919.5893399
918.6918218
917.7958268
916.9033707
916.016555
915.1373751
914.2674266
913.4085161
912.5619935
911.7291452
910.9113046
910.1092923
909.3239796
908.556213
907.8065514
907.0754114
906.3631349
905.6699524
904.9959567
904.3411862
903.705539
903.0888363
902.4907344
901.9109315
901.348932
900.8042892
900.2764109
)
;
    }
}


// ************************************************************************* //
