/*--------------------------------*- C++ -*----------------------------------*\
  =========                 |
  \\      /  F ield         | OpenFOAM: The Open Source CFD Toolbox
   \\    /   O peration     | Website:  https://openfoam.org
    \\  /    A nd           | Version:  7
     \\/     M anipulation  |
\*---------------------------------------------------------------------------*/
FoamFile
{
    version     2.0;
    format      ascii;
    class       volScalarField;
    location    "0.0024";
    object      T;
}
// * * * * * * * * * * * * * * * * * * * * * * * * * * * * * * * * * * * * * //

dimensions      [0 0 0 1 0 0 0];

internalField   nonuniform List<scalar> 
1167
(
459.4148795
459.525709
459.7632866
460.1143343
460.5708367
461.1264715
461.7743921
462.5088683
463.3239307
464.2138225
465.1730551
466.1961635
467.2778558
468.4130055
469.5966202
470.8238216
472.0898218
459.5956123
459.7063917
459.9438574
460.2945697
460.7507813
461.3059079
461.9533673
462.6871029
463.5012834
464.3901567
465.348182
466.3698784
467.4499375
468.5832133
469.7646946
470.9894855
472.2526771
473.5494087
474.8753061
476.225844
477.5963484
478.9828889
480.3811738
481.7872046
483.197323
484.6075727
486.0148807
487.4157368
488.8071729
490.1864721
491.5507114
492.8977431
494.2253135
495.5313274
496.8143031
498.0727137
499.3050185
500.5103136
501.6877311
502.8365825
503.956362
505.0467837
506.1076492
507.1389966
508.1409881
509.1140637
510.0585936
510.9752784
511.8647387
512.727845
459.7762032
459.8869266
460.1242681
460.4745876
460.930523
461.4850868
462.1320768
462.8650314
463.6782852
464.5660902
465.5228535
466.5430799
467.6214463
468.7527871
469.9320729
471.1543878
472.4146552
473.7083324
475.0308744
476.3776061
477.7441641
479.1264646
480.5201277
481.9214239
483.3264512
484.7315525
486.1335348
487.528824
488.9146986
490.2882657
491.6468307
492.9881557
494.3099519
495.6103094
496.8876789
498.1405474
499.3673331
500.5672677
501.7394304
502.8831383
503.9978939
505.0834151
506.139503
507.1661831
508.1636551
509.1323485
510.0726051
510.9851404
511.8705692
512.729761
459.9566445
460.0673062
460.3043417
460.6544189
461.1100537
461.6640257
462.3103431
463.0426445
463.8549263
464.741613
465.6970605
466.7157598
467.7923744
468.92172
470.0987501
471.3183713
472.5758177
473.8663886
475.1854958
476.5284181
477.8910007
479.2689285
480.65806
482.0546179
483.4545607
484.8545263
486.251112
487.6409602
489.0213063
490.3891811
491.7421154
493.0777806
494.3938526
495.6886043
496.9604185
498.2077373
499.4291126
500.6237354
501.7906905
502.9293005
504.0390761
505.1197389
506.1710693
507.1931319
508.1861252
509.1504812
510.0865004
510.9949205
511.8763513
512.731661
460.1369285
460.2474157
460.484211
460.8340547
461.2892124
461.8427163
462.4883062
463.2198565
464.0311982
464.9167164
465.8707943
466.88791
467.9627141
469.0900042
470.2646077
471.4815951
472.7361654
474.0235803
475.3390978
476.678287
478.0368657
479.4103778
480.7949844
482.1867647
483.5816657
484.9765094
486.367707
487.752159
489.1270098
490.4892314
491.8365771
493.1666133
494.4770253
495.7662199
497.0325281
498.2743373
499.4903604
500.679719
501.8415128
502.9750699
504.0799089
505.1557494
506.2023589
507.219854
508.2084065
509.1684426
510.1002789
511.0046184
511.8820848
512.7335451
460.3168644
460.4272635
460.6638961
461.0134869
461.4680999
462.0211496
462.6659753
463.3966179
464.2070356
465.0913921
466.0440469
467.0595231
468.1324589
469.2575277
470.4297063
471.6440577
472.8956995
474.1798811
475.4917973
476.8272179
478.1817338
479.5508454
480.9309146
482.3178216
483.7077802
485.097516
486.4833476
487.8624303
489.2317449
490.5884296
491.9302259
493.2546128
494.5594798
495.8431637
497.1040134
498.3403614
499.5510795
500.7352205
501.8918986
503.020447
504.1203924
505.1914224
506.2333818
507.2463486
508.2304982
509.1862512
510.1139402
511.0142337
511.8877693
512.735413
460.4966129
460.6069321
460.8433889
461.1926609
461.6467518
462.1992653
462.8433426
463.5730377
464.382368
465.2655106
466.2167399
467.230508
468.3014465
469.4243357
470.5940943
471.8057573
473.0544205
474.3351986
475.6435975
476.9752132
478.3255304
479.6903458
481.0658646
482.4478961
483.8329181
485.2174935
486.5980467
487.9717869
489.3355785
490.6867857
492.0230728
493.3418545
494.641222
495.9194414
497.1748549
498.4058129
499.6112723
500.7902414
501.9418485
503.0654321
504.1605164
505.2267877
506.2641373
507.2726149
508.2523995
509.2039062
510.1274836
511.023766
511.8934048
512.7372648
460.6761803
460.7864133
461.0226806
461.3714662
461.8251606
462.3769721
463.0204001
463.7491073
464.5573055
465.4391236
466.388825
467.4008491
468.4698133
469.590485
470.7577695
471.9666918
473.2122677
474.489662
475.7945042
477.1222833
478.4683811
479.8288861
481.1997988
482.5770008
483.9570923
485.3364702
486.7118168
488.0802411
489.4385428
490.7843089
492.1151264
493.4283458
494.7222577
495.9950575
497.2450364
498.4706947
499.6709408
500.8447828
501.9913632
503.1100251
504.2002626
505.2618448
506.2946246
507.2986522
508.2741097
509.221407
510.1409087
511.0332149
511.8989909
512.7391003
460.8555583
460.9656989
461.2017069
461.5500445
462.0033177
462.5543965
463.197088
463.9248192
464.7318402
465.6122852
466.5604072
467.5706352
468.6375722
469.7559726
470.9207297
472.1268602
473.369211
474.6432775
475.9445272
477.2683259
478.6102922
479.966474
481.3326957
482.7051468
484.0803146
485.4545096
486.8246698
488.1877672
489.5406476
490.8810079
492.2063368
493.514093
494.802592
496.070016
497.3146055
498.5350087
499.730086
500.8988452
502.0404424
503.1542214
504.2396585
505.2965927
506.3248428
507.3244593
508.2956278
509.2387528
510.1542106
511.0425798
511.9045273
512.7409195
461.0347385
461.1447802
461.3803773
461.7283881
462.1811821
462.7315295
463.3733086
464.1001664
464.9059651
465.7849889
466.7314812
467.7398616
468.8047189
469.9207956
471.0829743
472.2861235
473.5253481
474.7960486
476.093672
477.4134352
478.7512732
480.1031184
481.4646439
482.8323447
484.202547
485.571623
486.9366164
488.294345
489.6419022
490.9768906
492.2967336
493.5991016
494.8822294
496.1443204
497.3835645
498.5987566
499.788709
500.9524288
502.089086
503.1979847
504.2787032
505.3310302
506.3547907
507.3500351
508.3169528
509.2559427
510.1673842
511.0518604
511.9100138
512.7427223
461.2136423
461.3234592
461.558824
461.906489
462.3586249
462.9083638
463.5491961
464.2750159
465.0796733
465.9572286
466.9020419
467.9085239
468.9712502
470.0849522
471.2444095
472.4446012
473.6806812
474.9479769
476.241848
477.5576456
478.8913324
480.2387377
481.5956553
482.9586058
484.3237851
485.6878207
487.0476668
488.4000519
489.7423151
491.0719645
492.3863584
493.6833769
494.9611738
496.2179076
497.4519153
498.6619392
499.8468097
501.0055333
502.1372931
503.2413539
504.3173954
505.365156
506.3844667
507.3753783
508.3380834
509.2729757
510.1804373
511.061056
511.91545
512.7445085
461.392206
461.5019132
461.737039
462.0843391
462.5357922
463.0848922
463.7247431
464.449436
465.2528506
466.1289986
467.0720841
468.0766174
469.1371616
470.2483432
471.4050647
472.6023196
473.8352129
475.0990662
476.3890981
477.7009641
479.0304788
480.3733859
481.7257399
483.0839402
484.4441044
485.8031127
487.1578225
488.5048966
489.8418937
491.166221
492.4752167
493.766923
495.0394283
496.2908407
497.5196589
498.7245568
499.9043876
501.0581568
502.1850269
503.2843283
504.3557336
505.3989683
506.4138691
507.4004872
508.3590181
509.2898503
510.1933689
511.0701658
511.9208354
512.746278
461.5705485
461.6801403
461.9150143
462.2618131
462.7126754
463.2609857
463.8999432
464.6234697
465.425525
466.3001351
467.2415073
468.2440416
469.3022992
470.4110013
471.5650074
472.759281
473.988947
475.2492285
476.5354864
477.8433975
479.1687046
480.5071191
481.8549043
483.2082999
484.5635156
485.9175087
487.2670009
488.6088867
489.940645
491.2596093
492.5633131
493.8497435
495.1169953
496.3631266
497.5867959
498.7866089
499.9614415
501.1102981
502.2323086
503.3269054
504.3937155
505.4324648
506.4429958
507.4253596
508.379755
509.3065651
510.2061778
511.079189
511.9261695
512.7480306
461.7486623
461.8581327
462.0927422
462.4389519
462.889267
463.4366878
464.0747893
464.7971102
465.5977636
466.470768
467.4103222
468.4108159
469.466802
470.5729911
471.7242375
472.9154874
474.1418875
475.3985161
476.68102
477.9849547
479.3059282
480.6399428
481.9831552
483.3316862
484.6820277
486.0310175
487.3753101
488.7120296
490.0385751
491.3522065
492.650651
493.93184
495.1938341
496.4347671
497.6533265
498.8480949
500.0179701
501.1619439
502.2791481
503.3690817
504.4313376
505.4656423
506.4718437
507.4499929
508.4002918
509.323118
510.2188622
511.0881244
511.9314517
512.7497662
461.9265395
462.0358827
462.2700888
462.6158166
463.0655599
463.6120625
464.249175
464.9703513
465.7695607
466.6409151
467.5786064
468.5770137
469.6306816
470.7343124
471.8827556
473.0709412
474.2938959
475.5469823
476.8257049
478.125641
479.4422638
480.7718666
482.1105018
483.4541719
484.7996473
486.1436462
487.4827568
488.8143312
490.1356889
491.4440167
492.7372332
494.0132145
495.2699567
496.5057621
497.71925
498.9090132
500.0739711
501.2130649
502.325542
503.4108533
504.4685959
505.4984966
506.5004087
507.4743833
508.4206251
509.3395064
510.2314202
511.0969706
511.936681
512.7514843
462.1041725
462.2133161
462.4471127
462.7923993
463.241447
463.7871035
464.423118
465.1431868
465.9409114
466.8105726
467.7463564
468.7426323
469.7939366
470.8949646
472.0405615
473.2255696
474.4451116
475.6946303
476.9695416
478.2653429
479.5777233
480.9029008
482.2368677
483.5757638
484.9163786
486.2553026
487.5893494
488.9157977
490.2319114
491.5350433
492.8230622
494.0938687
495.3453951
496.5761097
497.784564
498.9693608
500.1294409
501.2636951
502.3714855
503.4522151
504.5054852
505.5310227
506.5286862
507.4985265
508.4407511
509.3557268
510.2438489
511.1057254
511.9418562
512.7531847
462.2814157
462.3903723
462.6238659
462.9686923
463.4169294
463.9618042
464.5966874
465.3154382
466.1118107
466.9797365
467.9135692
468.9076692
469.9565658
471.0549473
472.1976063
473.3793721
474.5955465
475.8414648
477.1125372
478.4041616
479.7123123
481.0330533
482.3623083
483.6964694
485.0322295
486.3660859
487.6950916
489.0164335
490.3273127
491.6252889
492.9081394
494.1737798
495.4201479
496.6458073
497.8492649
499.0291332
500.1843395
501.3138287
502.4169722
503.4931605
504.5419987
505.5632137
506.5566693
507.5224161
508.4606642
509.3717745
510.2561448
511.1143863
511.9469758
512.7548667
462.4583514
462.567163
462.800341
463.1446887
463.5920925
464.1361577
464.7698769
465.4872663
466.2821162
467.148403
468.080242
469.0721227
470.1185682
471.2141973
472.3538291
473.53243
474.7452042
475.9874933
477.2546009
478.5421265
479.8460347
481.1623184
482.4868691
483.8162957
485.1472068
486.4760073
487.7999871
489.1162413
490.4219091
491.7147547
492.9924651
494.252916
495.4942128
496.7148512
497.9133477
499.0883246
500.2386748
501.3634584
502.4619944
503.5336812
504.5781279
505.5950613
506.5843503
507.5460449
508.4803577
509.3876439
510.2683032
511.1229499
511.9520377
512.7565298
462.6350198
462.7436803
462.9765299
463.3201954
463.7669304
464.3099974
464.9426806
465.6586724
466.4519199
467.3163946
468.246273
469.2359043
470.2798145
471.3726877
472.5093469
473.684747
474.8940889
476.1327206
477.3958029
478.679244
479.978896
481.2906046
482.6105564
483.9352488
485.261207
486.5850707
487.9040378
489.2151629
490.5157034
491.8034417
493.0760383
494.3313293
495.5675857
496.7832359
497.9768058
499.1469269
500.2924583
501.412574
502.5065412
503.5737659
504.6138612
505.6265539
506.6117177
507.5694021
508.4998219
509.4033266
510.2803174
511.1314115
511.957039
512.7581729
462.8114131
462.9199169
463.1524229
463.4953863
463.9414362
464.4834638
465.1150927
465.8296517
466.6212587
467.483881
468.4116878
469.3990227
470.4404043
471.5305146
472.664163
473.8363265
475.042203
476.2770204
477.5361878
478.8155232
480.1109041
481.4180291
482.7333774
484.0533358
485.3743435
486.6932816
488.0072485
489.313232
490.6086979
491.891351
493.158851
494.4090187
495.6402641
496.850957
498.0396327
499.2048831
500.3456839
501.4611679
502.5506036
503.6134049
504.6491884
505.657681
506.6387612
507.5924778
508.5190477
509.4188145
510.2921806
511.1397658
511.9619767
512.7597951
462.9875236
463.0958646
463.3278266
463.6702614
464.1156037
464.6565653
465.2869655
466.0002007
466.7901307
467.6508627
468.5765588
469.5615575
470.6003716
471.6876814
472.8182825
473.9871752
475.1895178
476.4205156
477.6757639
478.9509732
480.2419758
481.5446052
482.8553441
484.1705484
485.4866295
486.80065
488.1096285
489.410487
490.7008968
491.9784853
493.2408464
494.4859872
495.7122484
496.9180132
498.1018257
499.2622366
500.3983441
501.5092317
502.5941726
503.6525882
504.6840989
505.6884317
506.6654697
507.6152612
508.5380252
509.434099
510.3038861
511.1480082
511.9668479
512.7613953
463.1633289
463.271384
463.5029248
463.844815
464.2892888
464.829298
465.4584038
466.1702973
466.9585368
467.8173421
468.7408901
469.7235149
470.7597246
471.844198
472.9717177
474.1373077
475.3359868
476.563242
477.8145504
479.0856164
480.3721901
481.6703579
482.9764833
484.2868443
485.5980938
486.9072055
488.2111485
489.5069585
490.7923317
492.0648777
493.3221262
494.5622677
495.7835738
496.9844414
498.1634098
499.3190295
500.4504796
501.5568074
502.6372908
503.6913583
504.7186342
505.7188449
506.6918783
507.6377822
508.5567778
509.4491967
510.315444
511.1561369
511.9716545
512.7629741
463.3387249
463.4466079
463.6777764
464.0191058
464.4626561
465.0017221
465.6295046
466.3398687
467.1265395
467.9833826
468.9047463
469.8849613
470.9185311
472.0001344
473.1245414
474.2866653
475.4817929
476.7052868
477.9526421
479.2194928
480.5016976
481.7954091
483.0969319
484.4024668
485.7089076
487.0131397
488.3120432
489.6028844
490.8832656
492.1508173
493.4030062
494.6382019
495.8546065
497.0506294
498.224755
499.3756775
500.5025088
501.6043075
502.6803542
503.7300838
504.7531239
505.7492018
506.7182121
507.6602059
508.575412
509.4641627
510.3268703
511.1641497
511.9763834
512.7645253
463.5570267
463.6646917
463.8953877
464.2359191
464.678387
465.2161863
465.8423636
466.5507924
467.3352869
468.1898085
469.1084581
470.0856357
471.1158812
472.1938252
473.314202
474.4721194
475.6627936
476.8815544
478.1239325
479.3853989
480.6621614
481.9502426
483.2458491
484.5453648
485.8456936
487.1437085
488.4361793
489.720655
490.9946227
492.2556323
493.5013923
494.730176
495.9402089
497.1299186
498.2977295
499.4425139
500.5633121
501.6592056
502.7294912
503.7736259
504.7912585
505.7821368
506.7461842
507.6834767
508.5942708
509.4789153
510.3378389
511.1716516
511.9807191
512.7659287
)
;

boundaryField
{
    front_top
    {
        type            wedge;
    }
    front_middle
    {
        type            wedge;
    }
    front_bottom
    {
        type            wedge;
    }
    back_top
    {
        type            wedge;
    }
    back_middle
    {
        type            wedge;
    }
    back_bottom
    {
        type            wedge;
    }
    axis_top
    {
        type            symmetryPlane;
    }
    axis_middle
    {
        type            symmetryPlane;
    }
    axis_bottom
    {
        type            symmetryPlane;
    }
    wall_top
    {
        type            convectiveRadiativeHeatFlux;
        mode            convectiveRadiative;
        kappaMethod     fluidThermo;
        kappa           none;
        alphaAni        Anialpha;
        h               nonuniform 0();
        Ta              constant 513.15;
        emissivityNozzle 0.95;
        emissivityFilament 0.95;
        dNozzle         2;
        dFilament       1.65;
        refValue        nonuniform 0();
        refGradient     nonuniform 0();
        valueFraction   nonuniform 0();
        value           nonuniform 0();
    }
    wall_middle
    {
        type            fixedValue;
        value           nonuniform 0();
    }
    wall_bottom
    {
        type            fixedValue;
        value           uniform 513.15;
    }
    inlet
    {
        type            fixedValue;
        value           nonuniform 0();
    }
    outlet
    {
        type            zeroGradient;
    }
    procBoundary0to1
    {
        type            processor;
        value           nonuniform List<scalar> 
51
(
459.2340124
459.3448864
459.5825635
459.9337698
460.3906972
460.9466412
461.5951605
462.3303365
463.1462327
464.0369851
464.9973233
466.0218101
467.1051629
468.242172
469.4278555
470.6574041
471.9260455
473.3896159
473.3896159
474.718819
476.0730449
477.447543
478.8382966
480.2411876
481.6519461
483.0670809
484.4825749
485.8952281
487.3016798
488.6987123
490.0837205
491.4537438
492.8065309
494.1399174
495.4516494
496.7402839
498.0042888
499.2421647
500.4528702
501.6355909
502.7896322
503.9144801
505.0098451
506.0755292
507.1115662
508.1181195
509.0956274
510.044466
510.9653347
511.8588597
512.7259131
)
;
    }
}


// ************************************************************************* //
