/*--------------------------------*- C++ -*----------------------------------*\
  =========                 |
  \\      /  F ield         | OpenFOAM: The Open Source CFD Toolbox
   \\    /   O peration     | Website:  https://openfoam.org
    \\  /    A nd           | Version:  7
     \\/     M anipulation  |
\*---------------------------------------------------------------------------*/
FoamFile
{
    version     2.0;
    format      ascii;
    class       volScalarField;
    location    "0.0024";
    object      thermo:alpha;
}
// * * * * * * * * * * * * * * * * * * * * * * * * * * * * * * * * * * * * * //

dimensions      [1 -1 -1 0 0 0 0];

internalField   nonuniform List<scalar> 
1167
(
0.0001187880407
0.000118775706
0.0001187492715
0.0001187102275
0.0001186594836
0.000118597764
0.0001185200322
0.000118431753
0.000118332274
0.0001182172759
0.0001180934772
0.0001179616173
0.000117821224
0.0001176648304
0.0001175020227
0.0001173272597
0.0001171419992
0.0001187679272
0.0001187556012
0.0001187291858
0.000118690189
0.0001186394901
0.0001185763884
0.0001184985122
0.000118410344
0.0001183093438
0.0001181945057
0.0001180708932
0.0001179392473
0.0001177974998
0.0001176414016
0.0001174789256
0.0001173029987
0.0001171181914
0.0001169251207
0.0001167195896
0.0001165099272
0.0001162897534
0.0001160606952
0.0001158290674
0.0001155873614
0.0001153449888
0.0001150905568
0.000114837148
0.0001145737945
0.0001143114856
0.0001140424837
0.0001137738224
0.0001135090426
0.0001132387624
0.000112967616
0.0001126934571
0.0001124250139
0.0001121611778
0.0001118939882
0.000111633402
0.0001113733178
0.0001111161255
0.0001108660522
0.0001106231125
0.0001103783303
0.0001101404718
0.0001099010861
0.0001096689457
0.0001094439326
0.0001092258689
0.0001090093146
0.0001187478345
0.0001187355179
0.000118709123
0.0001186701797
0.0001186195243
0.0001185548297
0.0001184770295
0.0001183889771
0.0001182864646
0.0001181717929
0.0001180483734
0.0001179169488
0.0001177738602
0.0001176180655
0.0001174559296
0.0001172788547
0.0001170945171
0.0001169004655
0.0001166954994
0.0001164850696
0.0001162669506
0.0001160359452
0.0001158051594
0.0001155643128
0.0001153216714
0.0001150682125
0.0001148158048
0.0001145524569
0.0001142912361
0.00011402242
0.0001137549125
0.0001134912881
0.0001132214009
0.0001129507245
0.0001126777919
0.0001124105568
0.0001121473532
0.0001118813735
0.0001116219695
0.000111362617
0.0001111065939
0.0001108576577
0.0001106158233
0.0001103718723
0.0001101349714
0.0001098965893
0.0001096655043
0.0001094415134
0.0001092244403
0.0001090088285
0.0001187277636
0.0001187154569
0.0001186891027
0.0001186501962
0.0001185995869
0.0001185333054
0.0001184556054
0.0001183676534
0.0001182636378
0.0001181491386
0.000118025919
0.0001178947229
0.0001177503063
0.0001175948232
0.0001174330352
0.0001172548508
0.0001170709674
0.0001168759503
0.0001166715608
0.0001164603728
0.0001162443034
0.0001160124871
0.0001157814317
0.0001155414444
0.000115298542
0.0001150460532
0.0001147937319
0.0001145313021
0.0001142711624
0.0001140025322
0.0001137361692
0.0001134736904
0.0001132041928
0.0001129339817
0.0001126622642
0.0001123962382
0.0001121336484
0.0001118688675
0.0001116106349
0.0001113520073
0.0001110971431
0.0001108493341
0.0001106084098
0.0001103654711
0.0001101294382
0.0001098921301
0.0001096620914
0.0001094391143
0.0001092230236
0.0001090083464
0.0001187077152
0.0001186954311
0.0001186691102
0.0001186302395
0.0001185783974
0.0001185118163
0.0001184342232
0.0001183457325
0.0001182408642
0.000118126544
0.000118003531
0.0001178725705
0.000117726839
0.0001175716755
0.0001174091963
0.0001172309635
0.0001170475419
0.0001168515746
0.0001166477852
0.0001164358356
0.0001162218107
0.0001159894159
0.0001157578819
0.00011551876
0.0001152755981
0.0001150240762
0.0001147716973
0.0001145103273
0.0001142512619
0.0001139828175
0.0001137175903
0.0001134560989
0.0001131871358
0.0001129173859
0.0001126468724
0.0001123820466
0.0001121200627
0.0001118564697
0.0001115993979
0.0001113414886
0.0001110877731
0.0001108410827
0.0001106009674
0.0001103591239
0.0001101239518
0.0001098877131
0.0001096587074
0.0001094367353
0.0001092216188
0.0001090078684
0.0001186877107
0.0001186754394
0.0001186491432
0.0001186103103
0.0001185568734
0.0001184903634
0.0001184128815
0.0001183228754
0.0001182181524
0.0001181040101
0.0001179812104
0.0001178504924
0.0001177034593
0.0001175486379
0.0001173849993
0.000117207193
0.0001170242405
0.0001168273422
0.0001166241543
0.0001164114569
0.0001161988912
0.0001159665093
0.0001157345075
0.0001154962667
0.0001152528369
0.0001150022788
0.0001147498465
0.0001144895307
0.0001142307987
0.0001139632735
0.0001136991735
0.0001134380218
0.0001131702281
0.0001129009355
0.0001126316154
0.000112367979
0.0001121065954
0.0001118441795
0.0001115882582
0.0001113310607
0.0001110784837
0.0001108329091
0.0001105935888
0.000110352831
0.0001101185122
0.0001098833338
0.0001096553522
0.0001094343767
0.0001092202261
0.0001090073944
0.0001186677319
0.0001186554726
0.0001186292026
0.000118590017
0.000118535383
0.0001184689542
0.0001183915814
0.0001183000682
0.0001181955113
0.0001180815536
0.0001179589673
0.0001178277527
0.0001176801893
0.000117525704
0.0001173609119
0.0001171835395
0.000117001063
0.0001168032676
0.0001166006676
0.0001163872364
0.0001161740756
0.0001159437648
0.0001157113059
0.0001154739461
0.0001152302559
0.0001149806703
0.000114728177
0.0001144689096
0.0001142103061
0.000113943898
0.0001136809168
0.0001134201025
0.0001131534683
0.0001128846293
0.0001126164973
0.0001123540346
0.0001120932459
0.0001118319967
0.0001115772155
0.0001113207235
0.0001110692772
0.0001108248063
0.0001105862741
0.0001103465925
0.0001101131196
0.0001098789924
0.000109652026
0.0001094320384
0.0001092188453
0.0001090069246
0.0001186477784
0.0001186355317
0.0001186092893
0.0001185684999
0.0001185139272
0.0001184475993
0.0001183703237
0.0001182773118
0.0001181729268
0.0001180591677
0.0001179368078
0.0001178042669
0.0001176570103
0.0001175028659
0.0001173369344
0.0001171600031
0.0001169774422
0.0001167793304
0.000116577324
0.0001163631723
0.0001161494281
0.0001159211812
0.0001156882833
0.0001154517959
0.0001152078526
0.0001149592456
0.0001147066864
0.0001144484618
0.000114189988
0.0001139246891
0.0001136628185
0.0001134023395
0.0001131368552
0.0001128684661
0.0001126015214
0.0001123402129
0.0001120800138
0.000111819921
0.0001115662699
0.000111310477
0.000111060158
0.0001108167746
0.0001105790234
0.0001103404087
0.0001101077742
0.000109874689
0.0001096487289
0.0001094297207
0.0001092174767
0.0001090064588
0.0001186278508
0.0001186156176
0.0001185889282
0.0001185470154
0.0001184925071
0.0001184262837
0.0001183486771
0.0001182546072
0.0001181503998
0.0001180368454
0.0001179147184
0.0001177808631
0.0001176339203
0.0001174801241
0.0001173130671
0.000117136584
0.0001169530828
0.0001167555298
0.0001165541219
0.0001163403725
0.0001161249476
0.0001158987571
0.0001156654432
0.0001154298141
0.0001151856249
0.0001149379931
0.0001146853725
0.000114428192
0.0001141698423
0.0001139056451
0.0001136448881
0.0001133847314
0.0001131203878
0.0001128524452
0.0001125866777
0.0001123265133
0.0001120668988
0.0001118079521
0.0001115554212
0.0001113003223
0.0001110511197
0.0001108088141
0.0001105718371
0.0001103342797
0.0001101024763
0.0001098704238
0.0001096454621
0.0001094274235
0.0001092161203
0.0001090059973
0.0001186079503
0.0001185957311
0.0001185674276
0.0001185255646
0.0001184711275
0.0001184050084
0.0001183258892
0.0001182319553
0.0001181279312
0.0001180145875
0.0001178926996
0.000117757542
0.00011761092
0.0001174574788
0.0001172893099
0.0001171133025
0.0001169288539
0.000116731865
0.0001165310604
0.000116317977
0.0001161006322
0.0001158764911
0.0001156427703
0.0001154079987
0.0001151635794
0.0001149169108
0.0001146642329
0.0001144081039
0.0001141498671
0.0001138867644
0.0001136271199
0.000113367277
0.000113104065
0.0001128365656
0.0001125719655
0.0001123129355
0.0001120539007
0.0001117960902
0.0001115446696
0.0001112902677
0.0001110421623
0.000110800925
0.0001105647154
0.0001103282059
0.0001100972261
0.000109866197
0.0001096422269
0.0001094251471
0.0001092147761
0.0001090055398
0.0001185874918
0.0001185742764
0.0001185459593
0.0001185041483
0.0001184498039
0.0001183837743
0.00011830315
0.0001182093733
0.0001181055217
0.0001179923947
0.0001178707522
0.0001177343041
0.0001175880097
0.0001174349302
0.0001172656767
0.0001170901409
0.0001169047549
0.0001167083357
0.0001165073056
0.0001162957247
0.0001160764806
0.0001158535793
0.0001156202624
0.0001153863478
0.000115141717
0.0001148959967
0.0001146432658
0.0001143881828
0.0001141300607
0.0001138680454
0.0001136095056
0.0001133499751
0.000113087886
0.000112820841
0.0001125573845
0.0001122994793
0.0001120410193
0.0001117843352
0.0001115340151
0.0001112803042
0.0001110332864
0.0001107931077
0.0001105576585
0.0001103221875
0.0001100920239
0.0001098620089
0.0001096390213
0.0001094228916
0.0001092134442
0.0001090050866
0.0001185660044
0.0001185528055
0.0001185245242
0.0001184827675
0.0001184285186
0.0001183625821
0.0001182804604
0.0001181868522
0.0001180831862
0.0001179702678
0.0001178488767
0.00011771115
0.0001175651899
0.0001174115804
0.0001172421628
0.0001170670953
0.0001168807854
0.0001166849413
0.0001164831875
0.0001162736143
0.000116052491
0.0001158304075
0.0001155979178
0.0001153648595
0.0001151200238
0.0001148752489
0.0001146224708
0.0001143684271
0.0001141104216
0.0001138494897
0.000113592044
0.000113332825
0.0001130718501
0.0001128052576
0.0001125429343
0.0001122861445
0.0001120282549
0.0001117726875
0.0001115231483
0.000111270432
0.000111024492
0.0001107853626
0.0001105506671
0.000110316225
0.00011008687
0.0001098578599
0.0001096358457
0.0001094206571
0.0001092121248
0.0001090046377
0.000118544549
0.0001185313672
0.0001185031233
0.0001184614373
0.0001184072727
0.0001183404136
0.0001182578212
0.0001181643864
0.0001180609209
0.0001179482278
0.000117826236
0.0001176880935
0.0001175424819
0.0001173877404
0.0001172187585
0.0001170441654
0.0001168569447
0.0001166616952
0.0001164592155
0.000116251645
0.000116028837
0.0001158073975
0.0001155757352
0.0001153430065
0.000115098498
0.0001148546656
0.0001146018634
0.0001143488352
0.0001140909483
0.0001138311073
0.0001135747343
0.0001133158257
0.0001130559567
0.0001127898141
0.0001125286148
0.0001122729313
0.0001120156077
0.0001117611473
0.000111512271
0.0001112606516
0.0001110157799
0.0001107776902
0.0001105437414
0.0001103103188
0.000110081765
0.0001098537502
0.0001096327002
0.0001094184439
0.0001092108179
0.000109004193
0.0001185231264
0.0001185099625
0.0001184817575
0.0001184401525
0.0001183860672
0.0001183176948
0.0001182352333
0.0001181419769
0.0001180387172
0.0001179262578
0.0001178029609
0.0001176651318
0.0001175198663
0.0001173640038
0.0001171954636
0.0001170213507
0.0001168332321
0.0001166385894
0.0001164353881
0.000116229815
0.0001160064518
0.0001157845481
0.0001155537135
0.0001153207262
0.0001150771377
0.0001148342451
0.0001145814231
0.0001143294057
0.0001140716395
0.000113812883
0.0001135575757
0.0001132989769
0.0001130398149
0.00011277451
0.000112514426
0.0001122598397
0.0001120030778
0.0001117497177
0.0001115014962
0.0001112509639
0.0001110071507
0.0001107700912
0.0001105368824
0.0001103044696
0.0001100767095
0.0001098496805
0.0001096295854
0.0001094162523
0.0001092095238
0.0001090037526
0.0001185017376
0.0001184885923
0.0001184604427
0.000118418906
0.0001183649027
0.0001182950239
0.0001182127103
0.0001181196243
0.0001180165756
0.0001179043556
0.0001177797645
0.0001176422548
0.0001174973415
0.0001173403704
0.000117172278
0.0001169986508
0.0001168096691
0.0001166156155
0.0001164117046
0.0001162081236
0.0001159842158
0.0001157618576
0.0001155318508
0.0001152986122
0.0001150559417
0.0001148139861
0.0001145611486
0.0001143101375
0.0001140524942
0.0001137948158
0.0001135405676
0.0001132822782
0.0001130235273
0.0001127593453
0.0001125003679
0.0001122468701
0.0001119906658
0.0001117384049
0.0001114908245
0.0001112413697
0.0001109986055
0.0001107625665
0.0001105300908
0.0001102986783
0.0001100717041
0.0001098456512
0.0001096265016
0.0001094140826
0.0001092082427
0.0001090033167
0.0001184803835
0.0001184672655
0.0001184391721
0.0001183976986
0.0001183429403
0.0001182724017
0.00011819025
0.0001180973295
0.0001179944969
0.0001178825217
0.000117756647
0.0001176194628
0.0001174749077
0.0001173168403
0.0001171492016
0.0001169753774
0.0001167862338
0.0001165927728
0.0001163881645
0.0001161844618
0.0001159621267
0.0001157393243
0.0001155101603
0.0001152766633
0.0001150349092
0.0001147929399
0.0001145410382
0.0001142910291
0.0001140335272
0.0001137769051
0.0001135237094
0.0001132657291
0.0001130073878
0.0001127443203
0.0001124864411
0.0001122340231
0.0001119783726
0.0001117272016
0.0001114802571
0.0001112318701
0.0001109901452
0.0001107551173
0.0001105233679
0.0001102929458
0.0001100667499
0.0001098416634
0.0001096234497
0.0001094119353
0.0001092069748
0.0001090028853
0.0001184590816
0.0001184459893
0.0001184179392
0.0001183765313
0.0001183202493
0.0001182498289
0.0001181678434
0.0001180751153
0.0001179724817
0.0001178607563
0.000117733609
0.0001175967561
0.000117452565
0.0001172934135
0.0001171262416
0.0001169515059
0.0001167629245
0.0001165700606
0.0001163647668
0.0001161605079
0.0001159401838
0.0001157169467
0.0001154886324
0.0001152548781
0.0001150140387
0.0001147720036
0.0001145210912
0.0001142720799
0.0001140147245
0.0001137591503
0.0001135070009
0.0001132493343
0.0001129913966
0.0001127294355
0.0001124726462
0.0001122212995
0.0001119662068
0.0001117161089
0.0001114697954
0.0001112224667
0.0001109817716
0.0001107477453
0.0001105167152
0.0001102872738
0.0001100618483
0.0001098377181
0.0001096204304
0.000109409811
0.0001092057205
0.0001090024585
0.0001184378219
0.0001184247502
0.000118396745
0.0001183554047
0.0001182976051
0.0001182273066
0.0001181454912
0.0001180529611
0.0001179505481
0.0001178390601
0.0001177106508
0.0001175741349
0.0001174303134
0.0001172700992
0.0001171034067
0.000116927755
0.0001167397404
0.0001165474778
0.000116342491
0.000116136706
0.0001159183861
0.0001156947256
0.0001154672592
0.0001152332551
0.0001149933288
0.0001147512333
0.0001145013068
0.0001142532891
0.0001139960829
0.000113741551
0.0001134904419
0.0001132331002
0.0001129755542
0.0001127146918
0.0001124589842
0.0001122087007
0.0001119541668
0.0001117051284
0.0001114594411
0.0001112131613
0.0001109734866
0.0001107404521
0.0001105101345
0.0001102816638
0.0001100570008
0.0001098338168
0.0001096174449
0.0001094077107
0.0001092044804
0.0001090020366
0.0001184165995
0.0001184035492
0.0001183755903
0.000118332757
0.0001182750085
0.000118204856
0.0001181231942
0.0001180308665
0.0001179286844
0.0001178159104
0.0001176877862
0.0001175516112
0.0001174069674
0.0001172469012
0.0001170806797
0.0001169041242
0.0001167166808
0.0001165250233
0.000116320698
0.0001161130547
0.0001158967328
0.0001156726766
0.0001154460395
0.0001152117933
0.0001149727982
0.0001147306283
0.0001144816845
0.0001142340716
0.0001139776018
0.0001137241071
0.0001134740325
0.0001132170162
0.0001129598614
0.0001127000901
0.0001124454567
0.0001121962282
0.0001119422498
0.0001116942624
0.0001114491969
0.0001112039566
0.0001109652927
0.0001107332406
0.0001105036287
0.0001102761185
0.0001100522099
0.0001098299614
0.0001096144949
0.0001094056354
0.0001092032552
0.0001090016197
0.0001183954154
0.0001183823872
0.0001183544539
0.0001183101061
0.0001182524604
0.0001181824592
0.0001181009531
0.0001180088323
0.0001179068856
0.0001177928208
0.0001176650118
0.0001175291838
0.0001173834316
0.0001172238053
0.0001170580602
0.0001168806127
0.0001166937453
0.0001165015443
0.0001162990354
0.0001160895525
0.0001158752225
0.0001156507797
0.000115424972
0.0001151904912
0.0001149524263
0.0001147101874
0.0001144622234
0.0001142147162
0.0001139592806
0.0001137068183
0.0001134576936
0.0001132010824
0.0001129443187
0.0001126856316
0.0001124320648
0.0001121833956
0.0001119304574
0.0001116835126
0.0001114390646
0.0001111948547
0.0001109571923
0.0001107261131
0.0001104972002
0.0001102706403
0.0001100474778
0.000109826154
0.000109611582
0.0001094035864
0.0001092020455
0.0001090012081
0.0001183742705
0.000118361265
0.0001183317702
0.0001182875017
0.0001182299614
0.0001181601148
0.0001180787869
0.0001179868587
0.0001178851521
0.0001177698062
0.0001176423174
0.0001175068418
0.0001173599922
0.0001172008112
0.0001170355473
0.0001168572194
0.0001166709382
0.0001164780423
0.0001162775018
0.0001160661976
0.0001158530221
0.0001156290324
0.0001154040545
0.0001151693502
0.0001149322107
0.0001146899087
0.0001144429217
0.000114195524
0.0001139411184
0.0001136896839
0.0001134408496
0.000113185298
0.0001129289259
0.0001126713163
0.0001124188092
0.0001121706698
0.0001119187911
0.0001116728807
0.0001114290464
0.0001111858579
0.0001109491878
0.0001107190721
0.0001104908514
0.0001102652315
0.0001100428069
0.0001098223966
0.0001096087079
0.000109401565
0.0001092008521
0.0001090008021
0.0001183530433
0.0001183390689
0.0001183091316
0.0001182649443
0.0001182075302
0.0001181378234
0.000118056682
0.0001179649486
0.0001178634837
0.0001177468662
0.0001176197026
0.0001174845841
0.000117336648
0.0001171779171
0.0001170131392
0.0001168339421
0.0001166482667
0.0001164546708
0.0001162560941
0.0001160429863
0.0001158306133
0.0001156074303
0.0001153832825
0.000115148378
0.0001149121461
0.0001146697864
0.0001144237847
0.0001141764889
0.000113923109
0.0001136726974
0.0001134241545
0.0001131696565
0.0001129136756
0.0001126571363
0.0001124056845
0.0001121580693
0.0001119072419
0.0001116623574
0.0001114191324
0.0001111769565
0.0001109412698
0.0001107121086
0.0001104845742
0.0001102598853
0.0001100381916
0.0001098186853
0.00010960587
0.0001093995714
0.0001091996746
0.0001090004015
0.000118330361
0.0001183164123
0.0001182865304
0.0001182424263
0.0001181851454
0.0001181155773
0.0001180346259
0.0001179431114
0.0001178418722
0.000117723992
0.0001175971582
0.0001174624017
0.0001173133891
0.0001171551129
0.0001169908251
0.0001168107898
0.0001166257024
0.0001164314156
0.0001162347976
0.0001160205515
0.0001158083302
0.0001155859524
0.0001153626323
0.0001151275305
0.0001148922017
0.0001146497844
0.0001144047683
0.0001141575641
0.0001139052005
0.000113655802
0.0001134075434
0.0001131540875
0.0001128984892
0.0001126430089
0.0001123926118
0.000112145502
0.000111895717
0.0001116518516
0.0001114092317
0.0001111680657
0.0001109333626
0.0001107051583
0.000110478315
0.0001102545623
0.0001100336054
0.0001098150064
0.0001096030645
0.0001093976062
0.0001091985161
0.000109000008
0.0001183021378
0.0001182882215
0.0001182584098
0.0001182144222
0.0001181572984
0.0001180879145
0.0001180071943
0.000117915956
0.0001178133056
0.0001176955615
0.0001175691375
0.0001174348364
0.0001172844921
0.0001171267943
0.0001169616202
0.0001167820487
0.0001165976979
0.0001164025638
0.000116208387
0.0001159934898
0.0001157807263
0.0001155593645
0.0001153362257
0.0001151017697
0.0001148675869
0.0001146251351
0.0001143813751
0.0001141343329
0.0001138832729
0.0001136351984
0.0001133873394
0.000113135232
0.00011288019
0.0001126260869
0.0001123770623
0.0001121306757
0.0001118822496
0.0001116397104
0.0001113979352
0.0001111580698
0.0001109246201
0.0001106976181
0.0001104716667
0.0001102490384
0.0001100289642
0.00010981138
0.0001096003714
0.0001093957664
0.000109197454
0.0001089996519
)
;

boundaryField
{
    front_top
    {
        type            wedge;
    }
    front_middle
    {
        type            wedge;
    }
    front_bottom
    {
        type            wedge;
    }
    back_top
    {
        type            wedge;
    }
    back_middle
    {
        type            wedge;
    }
    back_bottom
    {
        type            wedge;
    }
    axis_top
    {
        type            symmetryPlane;
    }
    axis_middle
    {
        type            symmetryPlane;
    }
    axis_bottom
    {
        type            symmetryPlane;
    }
    wall_top
    {
        type            calculated;
        value           nonuniform 0();
    }
    wall_middle
    {
        type            calculated;
        value           nonuniform 0();
    }
    wall_bottom
    {
        type            calculated;
        value           uniform 0.0001089022317;
    }
    inlet
    {
        type            calculated;
        value           nonuniform 0();
    }
    outlet
    {
        type            calculated;
        value           nonuniform List<scalar> 
50
(
0.0001183021378
0.0001182882215
0.0001182584098
0.0001182144222
0.0001181572984
0.0001180879145
0.0001180071943
0.000117915956
0.0001178133056
0.0001176955615
0.0001175691375
0.0001174348364
0.0001172844921
0.0001171267943
0.0001169616202
0.0001167820487
0.0001165976979
0.0001164025638
0.000116208387
0.0001159934898
0.0001157807263
0.0001155593645
0.0001153362257
0.0001151017697
0.0001148675869
0.0001146251351
0.0001143813751
0.0001141343329
0.0001138832729
0.0001136351984
0.0001133873394
0.000113135232
0.00011288019
0.0001126260869
0.0001123770623
0.0001121306757
0.0001118822496
0.0001116397104
0.0001113979352
0.0001111580698
0.0001109246201
0.0001106976181
0.0001104716667
0.0001102490384
0.0001100289642
0.00010981138
0.0001096003714
0.0001093957664
0.000109197454
0.0001089996519
)
;
    }
    procBoundary0to1
    {
        type            processor;
        value           nonuniform List<scalar> 
51
(
0.0001188081743
0.0001187958315
0.0001187693792
0.0001187303077
0.0001186795037
0.0001186177341
0.0001185415885
0.000118453203
0.0001183552194
0.0001182401167
0.0001181161447
0.0001179840749
0.0001178446218
0.0001176883509
0.0001175252201
0.0001173516367
0.0001171659471
0.0001169499161
0.0001169499161
0.0001167438275
0.0001165342496
0.0001163127136
0.0001160856255
0.0001158531577
0.0001156105929
0.0001153677498
0.0001151130885
0.0001148586743
0.0001145953184
0.0001143319142
0.0001140627391
0.0001137929018
0.0001135269563
0.0001132562814
0.0001129846583
0.0001127092612
0.0001124395984
0.0001121751233
0.0001119067123
0.0001116449329
0.0001113841099
0.0001111257379
0.0001108745175
0.0001106304629
0.0001103848464
0.0001101458968
0.0001099056202
0.0001096724157
0.0001094463719
0.0001092273093
0.0001090098048
)
;
    }
}


// ************************************************************************* //
