/*--------------------------------*- C++ -*----------------------------------*\
  =========                 |
  \\      /  F ield         | OpenFOAM: The Open Source CFD Toolbox
   \\    /   O peration     | Website:  https://openfoam.org
    \\  /    A nd           | Version:  7
     \\/     M anipulation  |
\*---------------------------------------------------------------------------*/
FoamFile
{
    version     2.0;
    format      ascii;
    class       volScalarField;
    location    "0.0024";
    object      thermo:mu;
}
// * * * * * * * * * * * * * * * * * * * * * * * * * * * * * * * * * * * * * //

dimensions      [1 -1 -1 0 0 0 0];

internalField   nonuniform List<scalar> 
1167
(
45946.25903
45575.81403
44793.53341
43666.45811
42250.52821
40599.68836
38770.04237
36812.69418
34775.98416
32702.91206
30630.34923
28589.33006
26604.77046
24695.85126
22876.60906
21156.58665
19541.51971
45343.97746
44979.41985
44209.55502
43100.82349
41707.35251
40082.94281
38281.95239
36355.49655
34350.6707
32309.72023
30269.00121
28259.04602
26304.37878
24423.89495
22631.43276
20936.41261
19344.63584
17858.79139
16478.6103
15202.18204
14026.31604
12946.20536
11956.75918
11052.31814
10226.91335
9474.819202
8790.030364
8167.078326
7600.591018
7085.506592
6617.252479
6191.400438
5803.985399
5451.387354
5130.202599
4837.408516
4570.311582
4326.382962
4103.375784
3899.266956
3712.234292
3540.630494
3382.985276
3237.963925
3104.368741
2981.104281
2867.208665
2761.790411
2664.066912
2573.315601
44751.45886
44392.69707
43635.05503
42544.49421
41173.01222
39574.68382
37801.82784
35905.77781
33932.33361
31923.00012
29913.62517
27934.24487
26008.9955
24156.49295
22390.38092
20719.96347
19151.16125
17686.24571
16325.19582
15066.29193
13906.13645
12840.17868
11863.49762
10970.37162
10155.11556
9411.954921
8735.081161
8119.164523
7558.834196
7049.202509
6585.704879
6164.032871
5780.305076
5430.916049
5112.543903
4822.215635
4557.292463
4315.257582
4093.911991
3891.262583
3705.512648
3535.037628
3378.387401
3234.246273
3101.426323
2978.846694
2865.560124
2760.682702
2663.440625
2573.118461
44168.54275
43815.48675
43070.40427
41997.1958
40647.36113
39074.69828
37329.98043
35463.41495
33520.858
31542.64458
29564.12026
27614.83169
25718.53263
23893.56373
22153.37707
20507.36616
18960.95363
17516.61848
16174.40931
14932.69503
13787.9768
12736.00478
11771.78788
10889.77521
10084.48565
9350.098957
8681.041013
8071.990254
7517.708942
7013.434943
6554.612021
6137.049315
5756.947575
5410.715631
5095.111783
4807.224652
4544.430085
4304.261929
4084.555106
3883.345863
3698.862425
3529.502498
3373.838637
3230.566349
3098.512876
2976.609987
2863.926419
2759.584732
2662.819723
2572.92298
43595.07158
43247.96698
42514.99368
41458.78244
40130.69325
38582.84859
36865.8759
35028.47288
33116.12841
31168.54635
29220.38628
27300.71306
25432.90393
23635.02893
21920.50445
20298.33701
18773.94624
17349.84823
16026.26804
14801.34066
13671.79258
12633.57824
11681.59267
10810.51815
10014.99582
9289.227051
8627.852175
8025.538666
7477.200769
6978.191886
6523.964188
6110.446463
5733.906526
5390.781174
5077.902493
4792.421644
4531.722393
4293.394536
4075.30411
3875.516107
3692.283166
3524.025673
3369.337228
3226.92249
3095.627252
2974.396462
2862.307578
2758.496527
2662.204222
2572.729164
43031.45931
42689.9187
41968.58447
40929.10781
39622.54059
38099.00212
36409.33906
34600.92063
32718.15857
30800.59876
28882.32374
26991.7963
25152.02297
23380.96853
21691.59357
20092.80611
18590.07378
17185.90591
15880.60764
14672.181
13557.56603
12532.84292
11592.87559
10732.6019
9946.619068
9229.316016
8575.488573
7979.794682
7437.325233
6943.461693
6493.752387
6084.231831
5711.175623
5371.10791
5060.912452
4777.801825
4519.167454
4282.654024
4066.15804
3867.772658
3685.774428
3518.610534
3364.881519
3223.314674
3092.769468
2972.203786
2860.703638
2757.418116
2661.594142
2572.53702
42477.01117
42140.90421
41431.02944
40408.16234
39122.63717
37623.16426
35960.24266
34180.34939
32326.96865
30438.94665
28549.96954
26688.13744
24876.05719
23131.22225
21466.49758
19890.70564
18409.27306
17024.83044
15737.37684
14545.17176
13445.31789
12433.75739
11505.60101
10655.93947
9879.32922
9170.376029
8523.931633
7934.742558
7398.047951
6909.233921
6463.967576
6058.378345
5688.749718
5351.691658
5044.144107
4763.362761
4506.763482
4272.039116
4057.116009
3860.11492
3679.337451
3513.252232
3360.4714
3219.742869
3089.939534
2970.031989
2859.114634
2756.349533
2660.989507
2572.346557
41931.53324
41600.7763
40902.18482
39896.08936
38630.84518
37155.41483
35518.46177
33766.64206
31942.17887
30083.35476
28223.29792
26389.65582
24604.68512
22885.61835
21245.14309
19691.96961
18231.55123
16866.43183
15596.5229
14420.26311
13334.91351
12336.28638
11419.76594
10580.50188
9813.101214
9112.377348
8473.163271
7890.366989
7359.348398
6875.498701
6434.601585
6032.879556
5666.62384
5332.528544
5027.599079
4749.102221
4494.508838
4261.548643
4048.17721
3852.542358
3672.974774
3507.950582
3356.106784
3216.207055
3087.137466
2967.881106
2857.540604
2755.290809
2660.390337
2572.157781
41394.87928
41069.38997
40382.06998
39392.31084
38147.03138
36695.26319
35083.9996
33359.6821
31563.6802
29733.59215
27901.9962
26096.09197
24337.79369
22644.07858
21027.4581
19496.53234
18056.87954
16710.65151
15457.99095
14297.50061
13226.31373
12240.39533
11335.35827
10506.26165
9747.91116
9055.274186
8423.166159
7846.668456
7321.214768
6842.246491
6405.66489
6007.729407
5644.793257
5313.614924
5011.264043
4735.018136
4482.402019
4251.181542
4039.340922
3845.055228
3666.681549
3502.705438
3351.787615
3212.70723
3084.363294
2965.751179
2855.982065
2754.241982
2659.796657
2571.970703
40866.90587
40546.60318
39870.77047
38896.68905
37671.15152
36242.58515
34656.94582
32959.35301
31191.36367
29389.55613
27585.96741
25807.35615
24075.30011
22406.52556
20813.37036
19304.49506
17885.08972
16557.4351
15321.73149
14176.7647
13119.47805
12146.04954
11252.2969
10433.19232
9683.761888
8999.047008
8373.923789
7803.645126
7283.635815
6809.468183
6377.142774
5982.92215
5623.253492
5294.947363
4995.13641
4721.108592
4470.441645
4240.936853
4030.606502
3837.65913
3660.457554
3497.516695
3347.513867
3209.243418
3081.617067
2963.642267
2854.439602
2753.203098
2659.208497
2571.785331
40347.67358
40032.81696
39367.73806
38409.08958
37203.38715
35797.25407
34236.83014
32565.82232
30825.12199
29051.14524
27275.11623
25523.35957
23817.12195
22172.88267
20602.93014
19115.64619
17716.12304
16406.73144
15187.78264
14057.98893
13014.36793
12053.27683
11170.55094
10361.26777
9620.638428
8943.677045
8325.420403
7761.256163
7246.600812
6777.1551
6349.017037
5958.452324
5602.0003
5276.539069
4979.213781
4707.371834
4458.626473
4230.813729
4021.973405
3830.346917
3654.302622
3492.384299
3343.285558
3205.815676
3078.898864
2961.554449
2852.912268
2752.17421
2658.625891
2571.601678
39837.19148
39527.34702
38872.83629
37929.37975
36743.19563
35359.14555
33823.5347
32178.80024
30465.07133
28718.25962
26969.34921
25244.01558
23563.18016
21943.21106
20396.02539
18929.89216
17549.92164
16258.4884
15056.06137
13941.13113
12910.94513
11962.01227
11090.09158
10290.46299
9558.485088
8889.146243
8277.644204
7719.489078
7210.099534
6745.304068
6321.28111
5934.314769
5581.029707
5258.371673
4963.493946
4693.806309
4446.955483
4220.811599
4013.44748
3823.118209
3648.216583
3487.308215
3339.102734
3202.424094
3076.208787
2959.487827
2851.400152
2751.155385
2658.048879
2571.419758
39334.95084
39030.03932
38385.93107
37457.73859
36290.45245
34928.43258
33416.9417
31798.06363
30111.02848
28391.10088
26668.7428
24969.39615
23313.62183
21717.38433
20192.50007
18747.16981
17386.42798
16112.74381
14926.46857
13826.15048
12809.18481
11872.19127
11010.89255
10220.7862
9497.28081
8835.437043
8230.619839
7678.331928
7174.122232
6713.926155
6293.928798
5910.50465
5560.33801
5240.441022
4947.974883
4680.410593
4435.427705
4210.929802
4005.024263
3815.972924
3642.199446
3482.288527
3334.965525
3199.068826
3073.546993
2957.442545
2849.903372
2750.146711
2657.477516
2571.239588
38840.81494
38540.75893
37906.89032
36993.89724
35845.03311
34504.86106
33016.93654
31423.50391
29762.73759
28069.30715
26373.17332
24699.37321
23068.15022
21495.2375
19992.28803
18567.41763
17225.58564
15969.39902
14798.95817
13713.00519
12709.11621
11783.78492
10932.92844
10152.2177
9437.00583
8782.53275
8184.289912
7637.773313
7138.659694
6682.989466
6266.954414
5887.017745
5539.933039
5222.744301
4932.65463
4667.183347
4424.042257
4201.169962
3996.701265
3808.911118
3636.251366
3477.325445
3330.87417
3195.750113
3070.913709
2955.418799
2848.422087
2749.148303
2656.911871
2571.061192
38354.65003
38059.37321
37435.91563
36537.54458
35406.81342
34088.13734
32623.6296
31055.01404
29420.09685
27752.73878
26082.40554
24433.73771
22826.66742
21276.69854
19795.32366
18390.57539
17067.48713
15828.35769
14673.48633
13601.65772
12610.62613
11696.76225
10856.17266
10084.6991
9377.642147
8730.41782
8138.641366
7597.802472
7103.703214
6652.487087
6240.352554
5863.849865
5519.808516
5205.279185
4917.531517
4654.12346
4412.798473
4191.536694
3988.478455
3801.932958
3630.372625
3472.419314
3326.829034
3192.468309
3068.309257
2953.416865
2846.956515
2748.160318
2656.352035
2570.8846
37876.32436
37585.92751
36972.69245
36088.55679
34975.91509
33678.1438
32236.84636
30692.48811
29083.0055
27441.3003
25796.35069
24172.4076
22589.09712
21061.69759
19601.54423
18216.66849
16911.93529
15689.57342
14550.01478
13492.16386
12513.67806
11611.09254
10780.65038
10018.20959
9319.173299
8679.12246
8093.660811
7558.4088
7069.272882
6622.412394
6214.117999
5840.996886
5499.953056
5188.043833
4902.60426
4641.230132
4401.695955
4182.022675
3980.355991
3795.038773
3624.56366
3467.570624
3322.830617
3189.223893
3065.734066
2951.437107
2845.506942
2747.18296
2655.798132
2570.70985
37406.07127
37120.42372
36516.93465
35646.81113
34552.18838
33274.76516
31856.30622
30336.17662
28751.36434
27134.89818
25514.92155
23915.30202
22355.36471
20850.16631
19410.94712
18045.63986
16758.86972
15552.99957
14428.50061
13384.41097
12418.24094
11526.74749
10706.30789
9952.728459
9261.581401
8628.588977
8049.337013
7519.582743
7035.336746
6592.759218
6188.24597
5818.461729
5480.364169
5171.036642
4887.871903
4628.502911
4390.741561
4172.628159
3972.334345
3788.229183
3618.825181
3462.780118
3318.879653
3186.017549
3063.188745
2949.480033
2844.073768
2746.21651
2655.250323
2570.536996
36943.51362
36662.41438
36068.51781
35212.18516
34135.28777
32877.88906
31481.90112
29985.62493
28425.33798
26833.44078
25238.0324
23662.34136
22125.39659
20642.11945
19223.54234
17877.34437
16608.23991
15418.58825
14308.98415
13278.34525
12324.28554
11443.7081
10633.09874
9888.235736
9204.849469
8578.800913
8005.659044
7481.315351
7001.88258
6563.521863
6162.732118
5796.249716
5461.039683
5154.256254
4873.333742
4615.941603
4379.932552
4163.353642
3964.414229
3781.505043
3613.158118
3458.048754
3314.977075
3182.850148
3060.674069
2947.546299
2842.657508
2745.261336
2654.708827
2570.366109
36488.39829
36211.77587
35627.32132
34785.00875
33725.09555
32487.76085
31113.52498
29640.71825
28104.6387
26537.14258
24965.76013
23413.57813
21899.29982
20437.52263
19039.1288
17711.72613
16459.99603
15286.29498
14191.36973
13173.93165
12231.7822
11362.01014
10561.00065
9824.712346
9149.014755
8529.745436
7962.616928
7443.621192
6968.903144
6534.694933
6137.572519
5774.342735
5441.977877
5137.701774
4858.989553
4603.546516
4369.265494
4154.200143
3956.596882
3774.867732
3607.563923
3453.377986
3311.124282
3179.722982
3058.191175
2945.636854
2841.258897
2744.317952
2654.173941
2570.197283
36040.60211
35768.38571
35193.22998
34364.71324
33321.49811
32103.93333
30751.07261
29301.35633
27789.09299
26245.60347
24697.97071
23168.91553
21676.85938
20236.18581
18857.64561
17548.73077
16314.09107
15156.19406
14075.58615
13071.13405
12140.70034
11281.5567
10489.9912
9762.139238
9094.008206
8481.409275
7920.199657
7406.479652
6936.391501
6506.272962
6112.765445
5752.737724
5423.176743
5121.372102
4844.839048
4591.328271
4358.740526
4145.16826
3948.88321
3768.318358
3602.043822
3448.769088
3307.32254
3176.637253
3055.741158
2943.752641
2839.8787
2743.386915
2653.645997
2570.030626
35600.00446
35332.12471
34766.57445
33951.16635
32924.38238
31726.26607
30394.73355
28967.43827
27478.60415
25958.73017
24434.46014
22928.15495
21457.95755
20038.04214
18679.03096
17388.30185
16170.50938
15028.13494
13961.59378
12969.91724
12051.07227
11202.31871
10420.0459
9700.505696
9039.810883
8433.777547
7878.394665
7369.868831
6904.340149
6478.250181
6088.323693
5731.43057
5404.633455
5105.265386
4830.881059
4579.276294
4348.358013
4136.258644
3941.274131
3761.858046
3596.599073
3444.223387
3303.573173
3173.594223
3053.325158
2941.894628
2838.517668
2742.468744
2653.125288
2569.866228
35166.52177
34903.19429
34346.76336
33544.25162
32533.94547
31354.64835
30044.17066
28638.90105
27173.07274
25676.42838
24175.1392
22691.21194
21242.51551
19843.01855
18503.21679
17230.37609
16029.25225
14902.04871
13849.34519
12870.2372
11962.81908
11124.26044
10351.13233
9639.81904
8986.396809
8386.826952
7837.205249
7333.770168
6872.732404
6450.611176
6064.212949
5710.408982
5386.33639
5089.37069
4817.108306
4567.380348
4338.108903
4127.462714
3933.761562
3755.479283
3591.222846
3439.734855
3299.871078
3170.5898
3050.940126
2940.060759
2837.174597
2741.563606
2652.611613
2569.704053
34740.26803
34481.12858
33933.52755
33143.70738
32149.6893
30988.8371
29699.0761
28315.77791
26872.29176
25398.50424
23919.82706
22457.91823
21030.37726
19650.97029
18330.06843
17074.96784
15890.10214
14777.82417
13738.73396
12772.03797
11875.81673
11047.2878
10283.15716
9579.938711
8933.673096
8340.464165
7796.528488
7298.088792
6841.472453
6423.259598
6040.336419
5689.576375
5368.189686
5073.593718
4803.436838
4555.552573
4327.91028
4118.703731
3926.276141
3749.121183
3585.863603
3435.261848
3296.184594
3167.601856
3048.572422
2938.244278
2835.847582
2740.671728
2652.106356
2569.54472
34218.26739
33964.24651
33427.44001
32653.33086
31679.03146
30540.881
29276.31039
27919.88524
26504.06507
25057.96105
23606.88155
22171.91605
20770.26672
19415.50984
18117.87341
16884.3322
15719.37496
14625.39536
13603.00337
12651.59369
11769.07406
10952.87236
10199.86015
9506.553358
8869.108289
8283.747033
7746.833121
7254.570201
6803.427292
6390.091872
6011.446504
5664.467508
5346.420237
5054.772712
4787.235594
4541.645832
4316.029126
4108.609042
3917.756425
3741.988132
3579.949487
3430.417076
3292.274327
3164.504724
3046.178514
2936.455063
2834.574454
2739.837056
2651.643222
2569.400581
)
;

boundaryField
{
    front_top
    {
        type            wedge;
    }
    front_middle
    {
        type            wedge;
    }
    front_bottom
    {
        type            wedge;
    }
    back_top
    {
        type            wedge;
    }
    back_middle
    {
        type            wedge;
    }
    back_bottom
    {
        type            wedge;
    }
    axis_top
    {
        type            symmetryPlane;
    }
    axis_middle
    {
        type            symmetryPlane;
    }
    axis_bottom
    {
        type            symmetryPlane;
    }
    wall_top
    {
        type            calculated;
        value           nonuniform 0();
    }
    wall_middle
    {
        type            calculated;
        value           nonuniform 0();
    }
    wall_bottom
    {
        type            calculated;
        value           uniform 2530.329233;
    }
    inlet
    {
        type            calculated;
        value           nonuniform 0();
    }
    outlet
    {
        type            calculated;
        value           nonuniform List<scalar> 
50
(
34218.26739
33964.24651
33427.44001
32653.33086
31679.03146
30540.881
29276.31039
27919.88524
26504.06507
25057.96105
23606.88155
22171.91605
20770.26672
19415.50984
18117.87341
16884.3322
15719.37496
14625.39536
13603.00337
12651.59369
11769.07406
10952.87236
10199.86015
9506.553358
8869.108289
8283.747033
7746.833121
7254.570201
6803.427292
6390.091872
6011.446504
5664.467508
5346.420237
5054.772712
4787.235594
4541.645832
4316.029126
4108.609042
3917.756425
3741.988132
3579.949487
3430.417076
3292.274327
3164.504724
3046.178514
2936.455063
2834.574454
2739.837056
2651.643222
2569.400581
)
;
    }
    procBoundary0to1
    {
        type            processor;
        value           nonuniform List<scalar> 
51
(
46558.46696
46182.04127
45387.14824
44241.94078
42802.68752
41125.49243
39266.22958
37277.49646
35208.40011
33102.93988
30998.10629
28925.45279
26910.34223
24972.44294
23125.98671
21380.55224
19741.93835
18034.31724
18034.31724
16634.67828
15340.49029
14148.56395
13054.04997
12051.60884
11135.64802
10299.95313
9538.715037
8845.866932
8215.751162
7642.995359
7122.383464
6649.26539
6219.160491
5827.998018
5472.134803
5148.09192
4852.793329
4583.489666
4337.639661
4112.94759
3907.359719
3719.027816
3546.281341
3387.629417
3241.72028
3107.340835
2983.38272
2868.872059
2762.907864
2664.698582
2573.514399
)
;
    }
}


// ************************************************************************* //
