/*--------------------------------*- C++ -*----------------------------------*\
  =========                 |
  \\      /  F ield         | OpenFOAM: The Open Source CFD Toolbox
   \\    /   O peration     | Website:  https://openfoam.org
    \\  /    A nd           | Version:  7
     \\/     M anipulation  |
\*---------------------------------------------------------------------------*/
FoamFile
{
    version     2.0;
    format      ascii;
    class       volScalarField;
    location    "0.0018";
    object      p;
}
// * * * * * * * * * * * * * * * * * * * * * * * * * * * * * * * * * * * * * //

dimensions      [1 -1 -2 0 0 0 0];

internalField   nonuniform List<scalar> 
1166
(
1489929.976
1488414.107
1488904.516
1489389.445
1489869.976
1490416.035
1491026.817
1491701.715
1492415.811
1493170.67
1493949.487
1494753.541
1495568.02
1496393.189
1497216.91
1498039.642
1498860.999
1499674.439
1488762.427
1487253.961
1487699.509
1488123.254
1488530.293
1488993.73
1489522.27
1490108.022
1490734.976
1491400.747
1492092.346
1492807.398
1493535.131
1494272.88
1495016.763
1495763.516
1496508.94
1497251.195
1497987.123
1498712.895
1499432.783
1500145.472
1500846.668
1501531.321
1502209.444
1502881.837
1503546.863
1504201.914
1504860.009
1505518.328
1506174.141
1506823.968
1507468.969
1508114.914
1508756.661
1509387.578
1510002.678
1510608.553
1511203.404
1511781.953
1512341.397
1512886.652
1513417.204
1513929.231
1514421.782
1514898.491
1515357.013
1515798.534
1516248.559
1516704.411
1487544.102
1486051.743
1486461.035
1486837.584
1487189.368
1487591.792
1488057.996
1488574.471
1489130.894
1489722.022
1490339.241
1490976.641
1491631.09
1492297.231
1492973.074
1493653.198
1494331.434
1495011.029
1495687.526
1496356.191
1497024.166
1497685.085
1498332.683
1498974.576
1499615.546
1500253.416
1500885.425
1501515.752
1502151.098
1502787.241
1503419.858
1504045.691
1504673.796
1505300.376
1505917.787
1506519.329
1507111.199
1507694.148
1508262.214
1508811.361
1509345.898
1509867.122
1510370.795
1510854.823
1511323.49
1511776.079
1512207.164
1512624.483
1513051.489
1513479.161
1486311.849
1484846.793
1485227.625
1485568.234
1485878.904
1486236.01
1486648.603
1487106.797
1487603.246
1488129.41
1488683.653
1489258.258
1489851.701
1490455.288
1491070.364
1491689.275
1492310.924
1492936.209
1493559.384
1494180.126
1494799.745
1495412.833
1496015.725
1496623.757
1497233.385
1497841.476
1498444.18
1499054.659
1499669.604
1500283.598
1500890.878
1501499.474
1502109.577
1502712.122
1503299.948
1503877.505
1504447.968
1505004.757
1505543.393
1506067.146
1506578.858
1507073.943
1507549.367
1508009.441
1508454.995
1508880.618
1509287.716
1509684.219
1510085.126
1510486.537
1485098.447
1483666.851
1484022.947
1484333.277
1484609.511
1484927.346
1485294.527
1485702.441
1486148.97
1486623.196
1487125.713
1487645.574
1488185.194
1488733.434
1489294.871
1489858.916
1490433.283
1491012.07
1491585.428
1492161.67
1492738.134
1493310.792
1493881.151
1494459.413
1495040.942
1495620.269
1496203.439
1496795.312
1497388.942
1497977.684
1498566.27
1499159.109
1499746.013
1500319.435
1500882.449
1501439.747
1501984.728
1502512.426
1503025.411
1503527.274
1504013.462
1504480.296
1504931.917
1505369.852
1505788.955
1506190.709
1506577.446
1506949.86
1507326.702
1507706.931
1483916.571
1482521.898
1482855.178
1483138.308
1483383.738
1483666.498
1483999.686
1484368.221
1484773.67
1485201.546
1485655.108
1486129.585
1486621.86
1487122.349
1487637.428
1488155.481
1488688.163
1489223.733
1489750.996
1490288.085
1490828.806
1491364.833
1491909.974
1492463.736
1493019.12
1493574.503
1494142.305
1494714.709
1495284.296
1495852.769
1496427.006
1496997.404
1497555.848
1498104.296
1498647.514
1499180.092
1499696.421
1500198.63
1500690.264
1501167.184
1501625.348
1502068.684
1502498.988
1502910.857
1503306.358
1503688.013
1504051.523
1504401.679
1504758.194
1505115.207
1482765.899
1481414.517
1481728.804
1481989.76
1482210.699
1482465.264
1482769.358
1483101.872
1483466.649
1483857.292
1484267.28
1484702.557
1485149.641
1485613.069
1486090.422
1486568.133
1487058.825
1487549.746
1488043.685
1488549.339
1489056.687
1489565.892
1490090.374
1490621.678
1491151.578
1491692.129
1492241.872
1492791.819
1493340.244
1493894.434
1494447.447
1494990.202
1495523.553
1496052.351
1496572.083
1497076.513
1497567.654
1498048.924
1498516.252
1498965.606
1499400.738
1499823.435
1500227.918
1500616.634
1500992.447
1501351.182
1501693.062
1502024.657
1502359.407
1502693.602
1481657.65
1480352.138
1480653.578
1480894.936
1481093.987
1481323.93
1481601.139
1481900.845
1482228.221
1482588.531
1482962.384
1483361.319
1483769.117
1484199.731
1484636.619
1485080.346
1485534.287
1485986.968
1486456.367
1486934.405
1487410.943
1487903.274
1488407.585
1488913.552
1489426.846
1489953.295
1490482.962
1491010.763
1491544.417
1492079.506
1492605.958
1493123.751
1493637.847
1494144.354
1494636.406
1495116.22
1495587.02
1496044.461
1496484.889
1496911.895
1497326.987
1497724.023
1498106.009
1498475.659
1498828.787
1499166.388
1499490.337
1499801.559
1500115.586
1500431.622
1480597.174
1479332.528
1479620.791
1479849.411
1480029.923
1480236.426
1480486.165
1480762.784
1481060.954
1481391.488
1481734.083
1482103.245
1482478.649
1482873.853
1483269.649
1483684.988
1484107.935
1484535.261
1484979.991
1485429.7
1485888.169
1486364.485
1486846.441
1487332.515
1487834.735
1488343.499
1488850.135
1489362.748
1489879.377
1490388.915
1490890.669
1491389.744
1491882.621
1492361.794
1492829.99
1493290.17
1493737.391
1494168.733
1494587.607
1494994.92
1495384.447
1495759.786
1496123.4
1496470.378
1496802.964
1497123.158
1497427.035
1497719.286
1498016.136
1498311.988
1479589.506
1478363.976
1478633.315
1478851.701
1479019.331
1479204.355
1479426.186
1479685.051
1479958.533
1480261.21
1480578.236
1480914.361
1481261.923
1481625.018
1481993.339
1482382.271
1482774.073
1483183.959
1483606.908
1484032.377
1484479.272
1484937.393
1485397.617
1485873.054
1486359.272
1486845.132
1487336.478
1487834.132
1488326.177
1488811.432
1489295.173
1489774.024
1490239.824
1490696.103
1491145.5
1491582.161
1492004.249
1492414.88
1492813.928
1493196.158
1493564.957
1493922.704
1494263.453
1494590.607
1494906.469
1495206.434
1495492.03
1495768.631
1496046.509
1496324.202
1478629.417
1477445.942
1477696.228
1477896.052
1478057.195
1478226.194
1478426.265
1478664.712
1478917.465
1479189.506
1479484.42
1479787.139
1480112.381
1480445.621
1480796.832
1481160.515
1481531.869
1481925.409
1482324.617
1482739.613
1483172.103
1483607.553
1484056.175
1484519.4
1484984.333
1485454.101
1485932.42
1486406.543
1486874.927
1487342.966
1487807.124
1488259.459
1488703.654
1489142.121
1489567.894
1489980.569
1490382.946
1490773.538
1491148.434
1491510.683
1491862.208
1492197.174
1492519.011
1492830.051
1493125.698
1493407.998
1493678.403
1493937.257
1494198.658
1494461.391
1477712.91
1476573.353
1476809.102
1476989.45
1477136.938
1477301.726
1477484.581
1477696.147
1477933.569
1478179.502
1478453.632
1478732.173
1479036.775
1479345.078
1479678.612
1480017.165
1480377.798
1480751.348
1481134.142
1481539.964
1481951.98
1482373.772
1482813.735
1483257.702
1483706.158
1484163.974
1484619.547
1485070.688
1485522.681
1485971.605
1486410.179
1486842.036
1487269.386
1487683.899
1488086.95
1488480.99
1488862.866
1489230.403
1489586.358
1489931.15
1490260.342
1490576.899
1490882.979
1491174.14
1491452.603
1491719.964
1491973.247
1492217.042
1492463.953
1492710.168
1476843.784
1475747.777
1475971.661
1476137.263
1476263.724
1476417.96
1476589.679
1476777.087
1476995.49
1477223.922
1477471.991
1477738.198
1478018.18
1478315.182
1478628.325
1478954.343
1479303.416
1479657.235
1480033.297
1480421.698
1480817.532
1481233.043
1481655.725
1482082.745
1482519.618
1482956.29
1483389.894
1483825.585
1484258.916
1484683.521
1485103.117
1485518.891
1485921.733
1486314.993
1486700.669
1487073.61
1487433.722
1487783.439
1488121.384
1488444.933
1488756.664
1489057.478
1489344.217
1489618.816
1489882.42
1490133.119
1490372.07
1490602.026
1490833.902
1491066.411
1476008.905
1474960.775
1475178.081
1475331.665
1475442.239
1475573.919
1475737.971
1475910.98
1476105.336
1476324.802
1476550.89
1476806.648
1477065.292
1477353.79
1477647.297
1477966.431
1478296.272
1478642.657
1479007.829
1479378.643
1479768.355
1480169.476
1480574.913
1480990.572
1481408.081
1481823.854
1482242.948
1482660.329
1483070.693
1483477.683
1483880.804
1484272.348
1484655.809
1485033.02
1485396.729
1485749.279
1486092.757
1486423.671
1486741.564
1487048.62
1487343.989
1487626.411
1487897.449
1488156.732
1488404.29
1488641.274
1488866.023
1489082.348
1489301.243
1489519.144
1475204.132
1474198.047
1474406.298
1474558.609
1474662.097
1474775.989
1474922.624
1475092.766
1475269.073
1475472.948
1475689.959
1475925.415
1476179.122
1476449.325
1476736.309
1477042.424
1477359.164
1477701.332
1478047.908
1478411.817
1478791.495
1479175.249
1479569.449
1479967.643
1480365.365
1480767.617
1481168.748
1481564.613
1481958.784
1482348.855
1482728.959
1483102.274
1483470.286
1483825.274
1484170.306
1484507.409
1484831.241
1485143.478
1485445.942
1485735.762
1486013.869
1486281.411
1486536.479
1486780.504
1487014.617
1487237.239
1487449.179
1487653.64
1487859.154
1488064.461
1474446.755
1473477.006
1473668.412
1473812.276
1473917.357
1474026.679
1474153.45
1474311.451
1474484.012
1474669.257
1474882.551
1475100.802
1475349.336
1475605.389
1475889.527
1476179.863
1476493.199
1476817.3
1477156.053
1477514.572
1477876.538
1478249.017
1478627.794
1479007.272
1479392.425
1479777.032
1480158.141
1480539.262
1480915.942
1481284.544
1481648.083
1482005.731
1482351.891
1482689.107
1483018.988
1483336.397
1483642.896
1483939.987
1484224.968
1484498.817
1484762.346
1485013.822
1485254.524
1485485.482
1485705.572
1485915.615
1486116.042
1486308.202
1486501.989
1486695.4
1473732.824
1472804.436
1472982.642
1473107.546
1473202.026
1473311.969
1473434.73
1473573.48
1473742.034
1473920.525
1474119.496
1474337.81
1474570.939
1474824.836
1475092.913
1475378.469
1475680.809
1475994.911
1476332.185
1476672.282
1477022.849
1477382.218
1477743.311
1478111.132
1478478.991
1478845.117
1479212.983
1479575.969
1479932.866
1480286.554
1480633.458
1480970.777
1481300.678
1481622.5
1481933.246
1482234.089
1482525.615
1482805.73
1483075.353
1483334.904
1483582.883
1483820.479
1484048.226
1484265.658
1484473.844
1484672.139
1484860.563
1485041.758
1485224.382
1485406.84
1473037.925
1472156.528
1472332.48
1472450.118
1472529.055
1472627.539
1472752.008
1472887.214
1473040.543
1473218.766
1473404.211
1473618.132
1473842.823
1474090.541
1474349.018
1474631.496
1474923.313
1475236.821
1475555.457
1475884.319
1476224.504
1476567.189
1476917.515
1477268.52
1477619.52
1477973.984
1478323.047
1478668.053
1479011.787
1479347.685
1479676.067
1479998.814
1480312.085
1480616.198
1480912.102
1481197.173
1481472.37
1481738.528
1481993.303
1482237.673
1482472.6
1482696.846
1482911.401
1483117.023
1483313.306
1483500.338
1483678.118
1483849.027
1484021.493
1484193.569
1472372.292
1471531.906
1471701.337
1471821.936
1471905.335
1471991.378
1472104.266
1472241.566
1472388.711
1472557.598
1472746.917
1472947.16
1473172.633
1473407.025
1473665.866
1473934.26
1474223.101
1474521.365
1474828.613
1475149.772
1475473.981
1475806.602
1476140.64
1476476.327
1476817.203
1477152.075
1477484.762
1477817.812
1478142.962
1478462.113
1478776.896
1479082.042
1479379.304
1479669.516
1479948.701
1480218.827
1480480.745
1480731.503
1480972.291
1481203.976
1481425.399
1481637.348
1481840.458
1482034.552
1482219.955
1482396.351
1482564.144
1482725.632
1482888.364
1483050.75
1471756.492
1470950.866
1471106.185
1471218.711
1471302.198
1471396.03
1471500.995
1471628.924
1471778.893
1471937.676
1472121.47
1472320.689
1472536.079
1472769.846
1473019.217
1473284.656
1473563.564
1473850.129
1474152.004
1474457.7
1474772.568
1475089.708
1475409.719
1475735.947
1476057.428
1476377.666
1476699.166
1477014.028
1477323.765
1477629.82
1477927.306
1478217.607
1478501.551
1478775.286
1479040.353
1479297.782
1479544.723
1479781.995
1480010.446
1480229.124
1480438.725
1480639.186
1480831.028
1481014.495
1481189.336
1481356.002
1481514.646
1481667.177
1481820.676
1481973.879
1471175.026
1470412.984
1470565.396
1470665.19
1470735.579
1470827.463
1470938.768
1471060.429
1471202.804
1471366.169
1471538.287
1471735.118
1471943.956
1472175.54
1472417.764
1472678.25
1472945.142
1473227.118
1473514.094
1473811.065
1474111.392
1474415.642
1474726.993
1475034.991
1475342.61
1475652.368
1475956.935
1476257.608
1476554.227
1476843.96
1477127.819
1477404.681
1477672.872
1477933.46
1478185.565
1478428.547
1478662.696
1478887.426
1479103.132
1479310.136
1479508.26
1479697.97
1479879.476
1480052.632
1480217.837
1480375.553
1480525.595
1480669.553
1480814.636
1480959.271
1470613.177
1469889.683
1470038.207
1470143.978
1470219.243
1470298.155
1470403.583
1470529.8
1470667.016
1470824.252
1471001.224
1471188.781
1471399.721
1471621.025
1471860.512
1472107.394
1472369.831
1472638.276
1472917.295
1473201.024
1473489.543
1473785.937
1474080.621
1474376.344
1474673.269
1474967.297
1475259.411
1475545.709
1475827.241
1476104.388
1476374.09
1476636.414
1476891.764
1477139.074
1477378.052
1477608.495
1477830.036
1478042.932
1478247.311
1478443.177
1478630.824
1478810.494
1478982.036
1479145.59
1479302.138
1479451.458
1479593.102
1479729.284
1479866.178
1480003.009
1470097.043
1469405.071
1469542.15
1469643.573
1469720.014
1469807.47
1469908.157
1470027.34
1470167.178
1470319.346
1470492.928
1470684.423
1470885.834
1471104.986
1471332.311
1471575.669
1471825.849
1472086.888
1472354.309
1472627.167
1472908.514
1473189.753
1473473.501
1473757.369
1474040.235
1474322.372
1474599.561
1474872.879
1475142.453
1475405.54
1475662.054
1475911.93
1476154.471
1476389.437
1476616.118
1476834.424
1477044.525
1477246.251
1477439.822
1477625.32
1477803.233
1477973.272
1478135.256
1478290.309
1478438.303
1478579.606
1478713.835
1478842.385
1478972.086
1479101.161
1469096.377
1469190.135
1469255.044
1469340.236
1469445.382
1469564.813
1469698.429
1469853.56
1470020.82
1470206.985
1470405.7
1470615.611
1470839.496
1471072.889
1471316.2
1471567.667
1471825.003
1472091.291
1472358.883
1472630.199
1472901.27
1473172.891
1473444.761
1473712.799
1473977.778
1474239.598
1474496.033
1474747.106
1474990.821
1475228.307
1475459.265
1475682.014
1475896.932
1476104.044
1476303.251
1476494.587
1476677.97
1476853.998
1477022.256
1477183.112
1477336.908
1477483.67
1477624.112
1477757.787
1477884.556
1478006.518
1478129.052
1478251.81
)
;

boundaryField
{
    front_top
    {
        type            wedge;
    }
    front_middle
    {
        type            wedge;
    }
    front_bottom
    {
        type            wedge;
    }
    back_top
    {
        type            wedge;
    }
    back_middle
    {
        type            wedge;
    }
    back_bottom
    {
        type            wedge;
    }
    axis_top
    {
        type            symmetryPlane;
    }
    axis_middle
    {
        type            symmetryPlane;
    }
    axis_bottom
    {
        type            symmetryPlane;
    }
    wall_top
    {
        type            fixedFluxPressure;
        gradient        uniform 0;
        value           nonuniform List<scalar> 
23
(
1516704.411
1513479.161
1510486.537
1507706.931
1505115.207
1502693.602
1500431.622
1498311.988
1496324.202
1494461.391
1492710.168
1491066.411
1489519.144
1488064.461
1486695.4
1485406.84
1484193.569
1483050.75
1481973.879
1480959.271
1480003.009
1479101.161
1478251.81
)
;
    }
    wall_middle
    {
        type            fixedFluxPressure;
        gradient        nonuniform 0();
        value           nonuniform 0();
    }
    wall_bottom
    {
        type            fixedFluxPressure;
        gradient        nonuniform 0();
        value           nonuniform 0();
    }
    inlet
    {
        type            zeroGradient;
    }
    outlet
    {
        type            fixedValue;
        value           nonuniform 0();
    }
    procBoundary9to8
    {
        type            processor;
        value           nonuniform List<scalar> 
51
(
1469613.634
1468960.474
1468960.474
1468660.314
1468755.784
1468828.468
1468910.176
1469009.036
1469130.811
1469268.685
1469416.183
1469582.537
1469759.253
1469953.356
1470157.881
1470375.478
1470601.16
1470837.128
1471079.145
1471330.397
1471584.067
1471842.134
1472101.101
1472361.549
1472622.96
1472881.882
1473139.137
1473392.106
1473641.197
1473885.938
1474124.188
1474356.579
1474583.061
1474802.108
1475013.668
1475217.729
1475414.28
1475603.051
1475784.641
1475958.933
1476125.605
1476285.181
1476437.722
1476583.277
1476722.633
1476855.246
1476981.971
1477102.366
1477217.554
1477334.026
1477449.866
)
;
    }
    procBoundary9to10
    {
        type            processor;
        value           nonuniform List<scalar> 
51
(
1491025.432
1489514.849
1490046.508
1490602.326
1491173.194
1491822.962
1492542.72
1493335.636
1494167.692
1495034.307
1495923.444
1496828.379
1497742.026
1498667.332
1499587.086
1500502.695
1501409.431
1502303.133
1500478.717
1500478.717
1501271.024
1502050.871
1502818.686
1503573.819
1504312.841
1505038.071
1505750.476
1506452.017
1507142.005
1507825.47
1508507.285
1509186.409
1509860.801
1510527.085
1511191.216
1511853.077
1512508.743
1513152.026
1513780.281
1514399.797
1515005.969
1515594.235
1516163.799
1516719.761
1517259.546
1517779.643
1518279.951
1518763.647
1519233.426
1519709.082
1520189.422
)
;
    }
}


// ************************************************************************* //
