/*--------------------------------*- C++ -*----------------------------------*\
  =========                 |
  \\      /  F ield         | OpenFOAM: The Open Source CFD Toolbox
   \\    /   O peration     | Website:  https://openfoam.org
    \\  /    A nd           | Version:  7
     \\/     M anipulation  |
\*---------------------------------------------------------------------------*/
FoamFile
{
    version     2.0;
    format      ascii;
    class       volScalarField;
    location    "0.0018";
    object      thermo:alpha;
}
// * * * * * * * * * * * * * * * * * * * * * * * * * * * * * * * * * * * * * //

dimensions      [1 -1 -1 0 0 0 0];

internalField   nonuniform List<scalar> 
1166
(
0.00011783508
0.0001178368855
0.000117840755
0.0001178464705
0.0001178539071
0.0001178629544
0.0001178846521
0.000117911748
0.0001179427973
0.000117980159
0.0001180204265
0.0001180633322
0.0001181123331
0.0001181716354
0.0001182334744
0.000118298224
0.0001183709851
0.0001184499153
0.0001178718076
0.0001178758679
0.0001178845692
0.0001178974202
0.0001179141379
0.0001179344722
0.0001179614318
0.0001179920143
0.0001180259253
0.0001180629072
0.0001181049294
0.0001181578312
0.0001182137542
0.0001182724249
0.0001183377327
0.0001184081244
0.0001184865634
0.0001185712601
0.0001186629874
0.0001187682229
0.0001188808016
0.0001190026739
0.0001191363637
0.0001192918158
0.0001194655436
0.0001196456589
0.0001198278699
0.0001200167809
0.0001201991405
0.0001203714088
0.000120535086
0.0001206917118
0.0001208193262
0.0001209290357
0.0001210186428
0.0001210924287
0.000121165758
0.000121225513
0.0001212790011
0.0001213271649
0.0001213695364
0.000121404988
0.0001214355279
0.0001214613347
0.0001214813063
0.0001215010599
0.0001215150612
0.0001215209526
0.0001215202404
0.0001215194347
0.0001179456818
0.0001179502656
0.0001179600882
0.0001179745943
0.0001179934635
0.0001180164089
0.0001180431281
0.0001180734007
0.0001181101706
0.0001181557727
0.0001182049019
0.0001182572475
0.0001183146379
0.0001183784127
0.000118448929
0.0001185246029
0.000118608579
0.0001187024229
0.0001188051428
0.0001189160543
0.0001190388766
0.0001191748715
0.0001193269573
0.0001195020903
0.0001196788976
0.000119859337
0.0001200450807
0.0001202241136
0.0001203922086
0.0001205531397
0.0001207050101
0.0001208314759
0.0001209381748
0.0001210246166
0.0001210979298
0.0001211708562
0.0001212292989
0.0001212820984
0.0001213296634
0.0001213719175
0.0001214068855
0.0001214369897
0.0001214623959
0.0001214823554
0.0001215021046
0.0001215153812
0.0001215210104
0.0001215201941
0.0001215193872
0.0001215169438
0.0001180263324
0.0001180308702
0.0001180405942
0.0001180549542
0.0001180736326
0.0001180969409
0.0001181298923
0.0001181672221
0.0001182086054
0.0001182537322
0.0001183033984
0.0001183603056
0.0001184222833
0.0001184910517
0.0001185664225
0.0001186471074
0.0001187428339
0.0001188444634
0.0001189522979
0.0001190755682
0.000119213715
0.0001193668916
0.0001195385252
0.0001197118024
0.0001198902394
0.0001200717892
0.0001202481675
0.0001204120098
0.0001205701014
0.0001207173204
0.0001208425383
0.0001209463447
0.0001210298502
0.0001211026449
0.0001211748755
0.000121232391
0.0001212845643
0.0001213316024
0.000121373609
0.0001214082883
0.0001214380478
0.0001214631505
0.000121483091
0.0001215028301
0.0001215156022
0.0001215209791
0.000121520162
0.0001215193542
0.0001215163503
0.0001215027072
0.0001181077263
0.0001181133229
0.0001181253156
0.0001181430253
0.0001181660593
0.0001181940683
0.0001182266801
0.0001182636233
0.0001183058506
0.0001183549148
0.0001184084611
0.0001184698325
0.0001185360679
0.0001186097086
0.000118692703
0.0001187844782
0.000118884875
0.0001189935651
0.0001191130196
0.0001192531958
0.0001194075666
0.0001195751478
0.000119744678
0.0001199208796
0.0001200980375
0.0001202713952
0.0001204310422
0.0001205861801
0.0001207288034
0.0001208518848
0.0001209536663
0.0001210344257
0.000121106652
0.0001211776745
0.0001212348463
0.0001212864464
0.0001213330204
0.0001213746537
0.0001214092259
0.0001214387247
0.0001214636145
0.0001214835285
0.0001215032511
0.0001215157286
0.0001215209612
0.0001215201437
0.000121519335
0.0001215159999
0.0001215023319
0.0001214888267
0.0001182033347
0.0001182088741
0.0001182207439
0.0001182382718
0.0001182610688
0.0001182887905
0.0001183239685
0.0001183641376
0.0001184094446
0.0001184623634
0.0001185194825
0.0001185852114
0.0001186560617
0.0001187400272
0.0001188298833
0.0001189266464
0.0001190361103
0.0001191559457
0.0001192936237
0.0001194490405
0.0001196122652
0.0001197778347
0.000119951566
0.0001201241078
0.0001202924519
0.0001204495427
0.0001206015909
0.0001207396252
0.0001208595677
0.0001209602636
0.0001210384273
0.0001211100316
0.0001211799329
0.0001212367232
0.0001212877934
0.0001213339572
0.0001213752806
0.0001214097282
0.0001214390433
0.000121463804
0.0001214836834
0.0001215033824
0.0001215157647
0.0001215209563
0.0001215201385
0.0001215193293
0.0001215158839
0.0001215021941
0.0001214886626
0.0001214739501
0.0001182970807
0.0001183031047
0.0001183160129
0.0001183350736
0.0001183598635
0.0001183900075
0.0001184273642
0.0001184706928
0.0001185187929
0.0001185754756
0.0001186365465
0.0001187101144
0.0001187893566
0.0001188776918
0.0001189726419
0.0001190802284
0.0001192023025
0.0001193362138
0.0001194916616
0.0001196502478
0.0001198122496
0.0001199826154
0.0001201502908
0.0001203134088
0.0001204677527
0.000120616554
0.0001207499556
0.0001208667469
0.0001209662635
0.0001210419414
0.0001211128659
0.0001211817132
0.0001212380813
0.0001212886549
0.0001213344534
0.000121375522
0.0001214098261
0.0001214390268
0.0001214637355
0.0001214835715
0.0001215032392
0.0001215157148
0.0001215209637
0.0001215201459
0.0001215193363
0.0001215159931
0.0001215022853
0.0001214887302
0.0001214740081
0.0001214545197
0.0001183970432
0.0001184032682
0.0001184171937
0.0001184377563
0.0001184644987
0.0001184970156
0.0001185362834
0.0001185826982
0.0001186341702
0.0001186970713
0.0001187667172
0.0001188441004
0.0001189276691
0.0001190235235
0.0001191265021
0.0001192505407
0.0001193855904
0.0001195357844
0.0001196894352
0.0001198483157
0.0001200143519
0.0001201768837
0.000120334526
0.0001204857407
0.0001206312955
0.0001207599689
0.0001208735592
0.0001209717964
0.0001210450565
0.0001211152393
0.0001211830798
0.0001212389821
0.000121289082
0.0001213345506
0.0001213754107
0.0001214095511
0.0001214386992
0.0001214634261
0.0001214832091
0.0001215028369
0.0001215155836
0.0001215209828
0.0001215201654
0.0001215193556
0.0001215163184
0.0001215025965
0.0001214890213
0.0001214743991
0.0001214548669
0.0001214355647
0.0001185030572
0.0001185094985
0.0001185237173
0.0001185457475
0.0001185743978
0.0001186092332
0.0001186504654
0.0001187034078
0.0001187621137
0.0001188283366
0.0001189017954
0.0001189839357
0.0001190768745
0.0001191825936
0.0001193010016
0.0001194371599
0.0001195817425
0.0001197301759
0.0001198856912
0.0001200467026
0.0001202041917
0.0001203560703
0.0001205032562
0.0001206460478
0.0001207698446
0.0001208801452
0.0001209769965
0.0001210478636
0.0001211172387
0.0001211840986
0.0001212394885
0.0001212891273
0.0001213342916
0.0001213749808
0.0001214089355
0.000121438085
0.0001214628932
0.0001214826127
0.0001215021915
0.0001215153757
0.000121521013
0.0001215201962
0.0001215193866
0.0001215168504
0.0001215031187
0.000121489527
0.000121475111
0.00012145554
0.0001214361909
0.000121416573
0.0001186140776
0.0001186209788
0.0001186357662
0.0001186593927
0.000118692076
0.0001187318132
0.0001187781361
0.0001188330528
0.0001188949798
0.0001189642115
0.0001190459188
0.0001191344171
0.0001192415937
0.0001193575706
0.0001194913094
0.000119629894
0.0001197728269
0.0001199247324
0.0001200794024
0.0001202325286
0.0001203783167
0.0001205212248
0.0001206610497
0.0001207797667
0.0001208866492
0.0001209820018
0.0001210504566
0.0001211189534
0.0001211848376
0.0001212396653
0.0001212888446
0.0001213337202
0.0001213742668
0.0001214080124
0.0001214372093
0.0001214621544
0.0001214817993
0.0001215013191
0.0001215150957
0.0001215209673
0.0001215202379
0.0001215194287
0.0001215175796
0.0001215038429
0.0001214902388
0.0001214761315
0.0001214565271
0.0001214371356
0.000121417756
0.0001213927311
0.0001187355164
0.0001187433893
0.0001187602584
0.0001187851658
0.0001188191689
0.0001188610922
0.0001189099613
0.0001189673098
0.0001190361989
0.0001191113515
0.0001192034285
0.0001193038754
0.0001194214241
0.0001195484354
0.0001196806616
0.0001198186587
0.0001199658045
0.0001201137427
0.0001202622156
0.0001204015464
0.0001205399032
0.0001206765464
0.0001207899244
0.0001208932197
0.0001209857328
0.0001210529321
0.0001211204755
0.0001211853667
0.0001212395793
0.0001212882895
0.0001213328817
0.0001213733046
0.000121406816
0.000121436098
0.0001214612281
0.0001214807865
0.0001215002364
0.0001215147484
0.0001215206065
0.0001215202897
0.0001215194814
0.0001215184962
0.0001215047597
0.0001214911476
0.0001214774481
0.0001214578161
0.0001214383871
0.0001214191661
0.0001213942596
0.0001213670441
0.0001188631117
0.0001188714184
0.0001188892168
0.0001189154958
0.0001189497564
0.0001189963998
0.0001190507676
0.000119112332
0.0001191897958
0.0001192764758
0.0001193755715
0.0001194890487
0.0001196088705
0.0001197344356
0.0001198681367
0.0001200092818
0.0001201500672
0.0001202915423
0.0001204260494
0.0001205595555
0.000120691227
0.0001208005138
0.0001209000105
0.0001209893229
0.0001210553894
0.0001211218996
0.0001211857579
0.0001212392993
0.0001212875192
0.0001213318227
0.0001213719366
0.0001214053814
0.0001214347778
0.0001214601332
0.0001214795921
0.0001214989605
0.000121514339
0.0001215201804
0.0001215203511
0.0001215195439
0.000121518743
0.0001215058595
0.0001214922444
0.0001214787526
0.0001214593947
0.0001214399337
0.0001214206753
0.000121396191
0.0001213693572
0.000121338788
0.0001189965847
0.0001190058274
0.000119025631
0.0001190548697
0.0001190928893
0.0001191415061
0.0001192042262
0.000119275241
0.0001193574808
0.0001194554193
0.0001195608748
0.0001196730761
0.0001197916155
0.0001199207723
0.0001200547932
0.0001201887315
0.0001203220934
0.0001204521239
0.0001205804537
0.0001207051618
0.0001208117362
0.0001209071796
0.000120993087
0.000121057931
0.0001211233235
0.0001211860856
0.0001212388961
0.0001212865926
0.0001213305912
0.0001213703114
0.0001214037448
0.0001214332759
0.0001214588889
0.0001214782346
0.000121497509
0.0001215138724
0.0001215196937
0.0001215204214
0.0001215196158
0.000121518816
0.0001215071325
0.0001214935198
0.000121480025
0.0001214612504
0.0001214417635
0.0001214224735
0.0001213985109
0.0001213721605
0.000121341504
0.0001213111995
0.0001191393846
0.0001191500488
0.0001191728977
0.0001192066312
0.0001192504927
0.0001193038097
0.0001193711528
0.0001194513991
0.0001195403428
0.0001196372238
0.0001197414986
0.0001198549066
0.0001199769753
0.0001201021914
0.0001202301
0.0001203548138
0.0001204800769
0.0001206028786
0.0001207201279
0.0001208237984
0.0001209148898
0.0001209971358
0.0001210606627
0.0001211248479
0.0001211864263
0.0001212384428
0.0001212855705
0.0001213292366
0.0001213685242
0.0001214019435
0.0001214316207
0.0001214575153
0.0001214767331
0.0001214958999
0.000121513354
0.0001215191516
0.0001215204999
0.0001215196963
0.0001215188981
0.0001215085688
0.0001214949642
0.0001214814721
0.0001214633704
0.0001214438642
0.000121424549
0.0001214012043
0.0001213754365
0.0001213447009
0.000121314302
0.0001212842437
0.0001192994383
0.0001193100048
0.0001193331638
0.0001193712894
0.0001194208584
0.0001194811085
0.00011955132
0.0001196306958
0.0001197186518
0.0001198153476
0.0001199227393
0.0001200371664
0.0001201530312
0.0001202741228
0.0001203900317
0.0001205088998
0.0001206271193
0.0001207363487
0.0001208369143
0.0001209233088
0.0001210015836
0.0001210636937
0.0001211265769
0.0001211868593
0.0001212380151
0.0001212845159
0.0001213278102
0.0001213666238
0.0001214000161
0.0001214298413
0.0001214555701
0.0001214751073
0.0001214941521
0.0001215127892
0.0001215185592
0.000121520586
0.0001215197849
0.0001215189887
0.0001215101579
0.0001214965678
0.0001214830845
0.0001214657415
0.0001214462231
0.0001214268898
0.0001214042563
0.0001213791672
0.0001213483615
0.0001213178756
0.0001212877248
0.0001212532121
0.0001194736493
0.0001194855904
0.0001195111739
0.0001195489418
0.0001195979876
0.0001196575745
0.0001197270109
0.000119806035
0.0001198966282
0.0001199954173
0.000120099096
0.0001202077097
0.0001203179596
0.0001204280861
0.000120540028
0.0001206534724
0.000120754054
0.0001208507655
0.0001209326103
0.0001210065483
0.0001210671366
0.0001211286181
0.0001211874665
0.000121237691
0.0001212834937
0.0001213263648
0.0001213646605
0.0001213980024
0.0001214279679
0.0001214534523
0.0001214733774
0.0001214922849
0.0001215111595
0.0001215179218
0.0001215206789
0.0001215198808
0.000121519087
0.0001215118892
0.0001214983204
0.0001214848524
0.00012146835
0.0001214488282
0.0001214294836
0.0001214076512
0.0001213825599
0.000121352468
0.0001213219035
0.0001212916683
0.0001212578075
0.0001212222063
0.0001196477434
0.0001196595536
0.0001196848564
0.0001197222096
0.0001197707721
0.0001198311805
0.0001199027032
0.0001199836659
0.0001200718947
0.0001201656717
0.0001202666335
0.0001203653218
0.0001204693215
0.0001205738735
0.0001206822426
0.0001207734801
0.000120863818
0.0001209429732
0.0001210121519
0.0001210711081
0.0001211310828
0.0001211883324
0.0001212375514
0.0001212825712
0.0001213249553
0.0001213626866
0.0001213959437
0.0001214260317
0.0001214512462
0.0001214715644
0.0001214903181
0.0001215090557
0.000121517245
0.000121520778
0.0001215199834
0.0001215191925
0.0001215137517
0.0001215002144
0.0001214867659
0.0001214711821
0.0001214516689
0.0001214323178
0.0001214113731
0.0001213862531
0.0001213570024
0.0001213263684
0.0001212960578
0.0001212629453
0.0001212274665
0.0001211872371
0.0001198185584
0.0001198307244
0.0001198567895
0.0001198952673
0.0001199452907
0.0001200060882
0.0001200752861
0.000120152146
0.0001202373272
0.0001203250632
0.0001204165765
0.0001205125856
0.0001206107609
0.0001207081499
0.0001207948722
0.0001208782961
0.0001209545817
0.00012101852
0.0001210757285
0.0001211340858
0.0001211895445
0.0001212376798
0.0001212818179
0.0001213236382
0.0001213607562
0.0001213938828
0.0001214240651
0.0001214489828
0.0001214696902
0.0001214882725
0.0001215068567
0.0001215165345
0.0001215208823
0.000121520092
0.0001215193044
0.0001215157342
0.0001215022364
0.0001214888147
0.0001214742234
0.0001214547284
0.0001214353791
0.0001214154055
0.0001213902668
0.0001213619462
0.0001213312535
0.0001213008763
0.000121268606
0.0001212330208
0.0001211935546
0.000121153041
0.000119991144
0.0001200031954
0.0001200290146
0.000120065891
0.0001201133822
0.0001201711025
0.0001202383609
0.0001203106802
0.0001203878939
0.0001204720981
0.0001205589623
0.000120651025
0.0001207360582
0.0001208184795
0.0001208943971
0.0001209676255
0.0001210257819
0.0001210811173
0.0001211377456
0.0001211911932
0.0001212381626
0.0001212813058
0.0001213224723
0.0001213589252
0.0001213918638
0.0001214221015
0.0001214466939
0.0001214677772
0.0001214861696
0.0001215045827
0.0001215157961
0.0001215209912
0.0001215202057
0.000121519422
0.0001215178248
0.0001215043752
0.0001214909883
0.0001214774589
0.0001214579924
0.0001214386543
0.0001214194553
0.0001213945849
0.0001213672801
0.0001213365464
0.0001213061065
0.0001212747698
0.0001212390889
0.0001212004806
0.0001211598213
0.0001211196357
0.0001201546204
0.0001201660625
0.0001201905763
0.0001202267643
0.0001202734502
0.0001203257731
0.0001203867447
0.0001204557673
0.0001205299054
0.0001206094058
0.0001206930167
0.0001207666984
0.0001208445587
0.0001209123239
0.0001209822995
0.0001210340711
0.000121087401
0.0001211421847
0.0001211933719
0.0001212390891
0.0001212811093
0.0001213215181
0.0001213572515
0.0001213899325
0.0001214201757
0.0001214444126
0.0001214658487
0.00012148403
0.000121502255
0.0001215150361
0.0001215206089
0.0001215203238
0.0001215195447
0.0001215187674
0.0001215066193
0.0001214932755
0.0001214799949
0.0001214614462
0.0001214421292
0.0001214229443
0.0001213991906
0.0001213729845
0.000121342222
0.0001213117303
0.0001212814163
0.0001212456512
0.0001212079933
0.0001211672043
0.0001211268645
0.0001210869601
0.000120308772
0.0001203191448
0.0001203413681
0.0001203741751
0.0001204168278
0.0001204686697
0.0001205268696
0.0001205920405
0.0001206642741
0.0001207318234
0.0001208003428
0.0001208688918
0.000120932285
0.0001209941642
0.0001210435256
0.0001210947162
0.0001211475297
0.0001211961771
0.0001212405518
0.0001212813055
0.0001213208386
0.0001213557951
0.0001213881364
0.000121417875
0.0001214421732
0.0001214639291
0.0001214818764
0.0001214998955
0.0001215142608
0.0001215197833
0.0001215204455
0.0001215196715
0.0001215188988
0.0001215089565
0.0001214956651
0.0001214824293
0.0001214650747
0.0001214457895
0.0001214266289
0.0001214040667
0.0001213790389
0.0001213482611
0.0001213177294
0.000121287464
0.0001212526875
0.0001212160705
0.0001211751642
0.0001211346805
0.0001210946267
0.0001210550347
0.0001204498007
0.0001204600788
0.0001204820994
0.000120513077
0.0001205533518
0.0001206023044
0.0001206593512
0.0001207163814
0.0001207742029
0.0001208372709
0.0001208950275
0.0001209544951
0.0001210073571
0.0001210542865
0.0001211031986
0.000121153911
0.0001211997086
0.0001212426461
0.0001212819741
0.0001213204987
0.0001213546182
0.0001213865248
0.0001214156818
0.0001214400112
0.0001214620434
0.0001214797346
0.000121497527
0.0001215134767
0.0001215189433
0.0001215205699
0.0001215198018
0.0001215190344
0.0001215113747
0.0001214981451
0.0001214849635
0.0001214688623
0.0001214496222
0.0001214304949
0.0001214091955
0.0001213842422
0.0001213546434
0.0001213240846
0.0001212937851
0.0001212601772
0.0001212245811
0.0001211836789
0.000121143063
0.0001211028738
0.0001210631209
0.0001210237976
0.0001205825918
0.0001205922979
0.0001206130929
0.0001206437925
0.0001206837063
0.0001207230745
0.0001207687425
0.0001208204487
0.000120872502
0.0001209238593
0.000120979174
0.000121022151
0.0001210664993
0.0001211129879
0.0001211614629
0.0001212040691
0.0001212454707
0.0001212831975
0.0001213205659
0.0001213537852
0.0001213851485
0.000121413677
0.0001214379636
0.0001214602178
0.0001214776295
0.0001214951731
0.0001215126908
0.0001215180956
0.0001215206962
0.0001215199348
0.0001215191732
0.0001215138607
0.0001215007069
0.0001214875856
0.0001214727925
0.0001214536141
0.0001214345275
0.0001214145585
0.0001213896323
0.0001213613484
0.0001213307764
0.000121300456
0.0001212680992
0.0001212324422
0.000121192726
0.0001211519906
0.0001211116782
0.0001210717749
0.0001210322997
0.000120989262
0.0001207302082
0.0001207547855
0.0001207867414
0.000120825587
0.0001208668291
0.0001209089366
0.0001209556193
0.0001209996722
0.0001210387016
0.0001210803108
0.0001211242284
0.0001211703242
0.0001212093649
0.0001212491275
0.000121285061
0.0001213211098
0.0001213533628
0.0001213840606
0.0001214119112
0.0001214360685
0.0001214584791
0.0001214755868
0.0001214928583
0.000121510262
0.0001215172469
0.0001215208235
0.0001215200696
0.0001215193145
0.0001215164012
0.0001215033345
0.0001214902835
0.0001214768485
0.0001214577451
0.0001214387116
0.0001214197623
0.0001213952517
0.0001213683545
0.0001213377941
0.0001213074571
0.0001212764314
0.000121240728
0.0001212022825
0.0001211614483
0.000121121019
0.0001210809768
0.0001210413609
0.0001209994117
0.0001209551736
)
;

boundaryField
{
    front_top
    {
        type            wedge;
    }
    front_middle
    {
        type            wedge;
    }
    front_bottom
    {
        type            wedge;
    }
    back_top
    {
        type            wedge;
    }
    back_middle
    {
        type            wedge;
    }
    back_bottom
    {
        type            wedge;
    }
    axis_top
    {
        type            symmetryPlane;
    }
    axis_middle
    {
        type            symmetryPlane;
    }
    axis_bottom
    {
        type            symmetryPlane;
    }
    wall_top
    {
        type            calculated;
        value           nonuniform List<scalar> 
23
(
0.0001215190337
0.0001215100846
0.0001214959148
0.0001214821025
0.0001214641564
0.0001214448162
0.0001214259538
0.0001214040019
0.0001213802635
0.0001213516916
0.0001213235661
0.0001212961073
0.000121266794
0.0001212354605
0.0001212017239
0.0001211669017
0.0001211328765
0.000121099611
0.0001210670989
0.0001210353067
0.0001210017601
0.0001209670721
0.0001209316757
)
;
    }
    wall_middle
    {
        type            calculated;
        value           nonuniform 0();
    }
    wall_bottom
    {
        type            calculated;
        value           nonuniform 0();
    }
    inlet
    {
        type            calculated;
        value           nonuniform 0();
    }
    outlet
    {
        type            calculated;
        value           nonuniform 0();
    }
    procBoundary9to8
    {
        type            processor;
        value           nonuniform List<scalar> 
51
(
0.0001207057909
0.0001207135608
0.0001207135608
0.0001208311801
0.0001208542506
0.0001208802752
0.0001209119127
0.0001209487887
0.0001209882886
0.0001210212283
0.0001210571678
0.0001210958556
0.0001211370683
0.0001211792681
0.0001212157056
0.0001212532478
0.0001212876527
0.0001213222025
0.00012135342
0.0001213833157
0.0001214104367
0.0001214343657
0.0001214566801
0.0001214736334
0.0001214906082
0.0001215077402
0.0001215164042
0.0001215209507
0.0001215202053
0.0001215194574
0.0001215187078
0.0001215060145
0.0001214930448
0.0001214800898
0.0001214619985
0.0001214430312
0.0001214241391
0.0001214010814
0.0001213756393
0.000121345107
0.0001213147684
0.0001212846387
0.0001212494167
0.0001212123242
0.0001211714132
0.0001211308744
0.0001210907082
0.0001210509614
0.0001210101886
0.0001209657721
0.0001209189789
)
;
    }
    procBoundary9to10
    {
        type            processor;
        value           nonuniform List<scalar> 
51
(
0.0001178966452
0.0001178902762
0.0001178830455
0.0001178723633
0.000117858461
0.0001178415424
0.0001178402807
0.0001178523342
0.0001178669932
0.0001179000961
0.0001179359408
0.0001179792917
0.0001180251419
0.0001180732467
0.000118130678
0.0001181955499
0.0001182625048
0.0001183352832
0.000118534741
0.000118534741
0.0001186270891
0.0001187325962
0.0001188459251
0.0001189666931
0.0001191016486
0.0001192565001
0.0001194285758
0.0001196117909
0.0001197955448
0.0001199870968
0.0001201729908
0.0001203493857
0.0001205157357
0.0001206755084
0.0001208059399
0.0001209188102
0.0001210118491
0.0001210860653
0.000121159757
0.000121220978
0.0001212752264
0.0001213240688
0.0001213665401
0.000121402567
0.0001214336407
0.0001214599514
0.0001214799289
0.0001214996818
0.0001215146381
0.0001215205237
0.0001215203015
)
;
    }
}


// ************************************************************************* //
