/*--------------------------------*- C++ -*----------------------------------*\
  =========                 |
  \\      /  F ield         | OpenFOAM: The Open Source CFD Toolbox
   \\    /   O peration     | Website:  https://openfoam.org
    \\  /    A nd           | Version:  7
     \\/     M anipulation  |
\*---------------------------------------------------------------------------*/
FoamFile
{
    version     2.0;
    format      ascii;
    class       volVectorField;
    location    "0.0018";
    object      U;
}
// * * * * * * * * * * * * * * * * * * * * * * * * * * * * * * * * * * * * * //

dimensions      [0 1 -1 0 0 0 0];

internalField   nonuniform List<vector> 
1166
(
(1.932071266e-08 7.774970276e-20 -0.002115084252)
(5.046523117e-08 1.591121476e-19 -0.002115087734)
(7.969116254e-08 2.431317232e-19 -0.002115095186)
(1.094055291e-07 1.316478535e-19 -0.00211510619)
(1.384838238e-07 5.775512642e-20 -0.002115120477)
(1.666114313e-07 1.226395199e-19 -0.002115137807)
(1.936631034e-07 1.809112467e-19 -0.002115157949)
(2.195641133e-07 2.385688654e-19 -0.002115180691)
(2.44236133e-07 2.165533344e-19 -0.00211520582)
(2.676082002e-07 2.033768341e-19 -0.002115233138)
(2.896201316e-07 1.960161759e-19 -0.002115262454)
(3.102216991e-07 1.938629511e-19 -0.002115293586)
(3.29370302e-07 1.950413128e-19 -0.002115326363)
(3.470265039e-07 2.006296854e-19 -0.002115360619)
(3.631558698e-07 2.083127279e-19 -0.00211539619)
(3.777216418e-07 2.1787462e-19 -0.002115432926)
(3.907081749e-07 2.29469792e-19 -0.00211547068)
(4.021009454e-07 2.42471256e-19 -0.002115509312)
(2.003758414e-08 7.002368211e-20 -0.002116502858)
(5.233208015e-08 1.34103541e-19 -0.002116506111)
(8.26121435e-08 1.842566099e-19 -0.002116513079)
(1.133553018e-07 2.439125964e-19 -0.002116523369)
(1.43381665e-07 3.075802443e-19 -0.002116536728)
(1.723592788e-07 2.313271529e-19 -0.002116552935)
(2.001714585e-07 1.702448599e-19 -0.002116571781)
(2.267466904e-07 1.090717862e-19 -0.002116593073)
(2.520093066e-07 1.190430641e-19 -0.00211661662)
(2.758956427e-07 1.115780418e-19 -0.002116642245)
(2.983496861e-07 8.835143748e-20 -0.002116669772)
(3.19322433e-07 1.06924727e-19 -0.002116699035)
(3.387712861e-07 1.069605419e-19 -0.002116729872)
(3.566544888e-07 1.365376065e-19 -0.002116762131)
(3.729430416e-07 1.543823891e-19 -0.002116795662)
(3.87612737e-07 1.662717807e-19 -0.002116830328)
(4.006426422e-07 1.744583982e-19 -0.002116865995)
(4.120157279e-07 1.796994573e-19 -0.002116902535)
(4.217160888e-07 1.820347362e-19 -0.002116939828)
(4.297228153e-07 1.814657935e-19 -0.002116977757)
(4.360258649e-07 1.786212032e-19 -0.002117016211)
(4.406281113e-07 1.740945229e-19 -0.002117055086)
(4.435242072e-07 1.684908428e-19 -0.002117094283)
(4.446912124e-07 1.618130917e-19 -0.002117133703)
(4.441232327e-07 1.537056631e-19 -0.00211717325)
(4.418431078e-07 1.674264195e-19 -0.002117212836)
(4.378727635e-07 1.794696461e-19 -0.002117252374)
(4.322240553e-07 2.009770246e-19 -0.002117291779)
(4.249431387e-07 2.2144072e-19 -0.002117330967)
(4.161096576e-07 2.3180852e-19 -0.002117369858)
(4.057916591e-07 2.416271736e-19 -0.002117408366)
(3.940462982e-07 2.509594482e-19 -0.002117446402)
(3.809312087e-07 2.598760063e-19 -0.002117483871)
(3.66536305e-07 2.68683751e-19 -0.002117520672)
(3.509627296e-07 2.774047695e-19 -0.002117556702)
(3.342811621e-07 2.862628408e-19 -0.002117591845)
(3.165297337e-07 2.956331642e-19 -0.002117625969)
(2.977626218e-07 2.984934621e-19 -0.002117658937)
(2.780608268e-07 3.02069119e-19 -0.002117690599)
(2.574832683e-07 3.062869905e-19 -0.002117720797)
(2.360612614e-07 3.111270659e-19 -0.002117749354)
(2.13841275e-07 3.165690901e-19 -0.002117776084)
(1.908938559e-07 3.226115361e-19 -0.002117800791)
(1.672711715e-07 3.292801509e-19 -0.002117823266)
(1.430037787e-07 3.367229714e-19 -0.002117843286)
(1.181374554e-07 3.3959065e-19 -0.002117860617)
(9.272236775e-08 3.433502534e-19 -0.002117875016)
(6.679016528e-08 3.430099635e-19 -0.002117886227)
(4.051577255e-08 3.439353408e-19 -0.002117893982)
(1.441376183e-08 3.42244322e-19 -0.002117898004)
(2.063010161e-08 3.529238775e-20 -0.002117879864)
(5.38711996e-08 3.477829382e-20 -0.002117882911)
(8.501527402e-08 7.879521726e-21 -0.002117889451)
(1.166047569e-07 1.962862119e-19 -0.002117899112)
(1.474154158e-07 3.381077926e-19 -0.002117911663)
(1.771055382e-07 3.129298699e-19 -0.0021179269)
(2.055660664e-07 2.962965925e-19 -0.002117944636)
(2.327254269e-07 2.850803103e-19 -0.002117964692)
(2.585063502e-07 2.69993605e-19 -0.002117986895)
(2.828447604e-07 2.430873377e-19 -0.002118011078)
(3.056845723e-07 2.175838816e-19 -0.002118037079)
(3.269735906e-07 2.010802164e-19 -0.002118064745)
(3.466709665e-07 1.908596077e-19 -0.002118093927)
(3.647425947e-07 1.910269479e-19 -0.002118124485)
(3.811630889e-07 1.932616561e-19 -0.002118156284)
(3.959107648e-07 1.950654526e-19 -0.002118189196)
(4.089568551e-07 1.957667411e-19 -0.002118223098)
(4.2028287e-07 1.950795321e-19 -0.002118257872)
(4.298782547e-07 1.926509989e-19 -0.002118293408)
(4.377211821e-07 1.888200099e-19 -0.002118329599)
(4.438065711e-07 1.830987907e-19 -0.002118366345)
(4.481379845e-07 1.756372609e-19 -0.002118403549)
(4.506916102e-07 1.66319398e-19 -0.002118441118)
(4.514544247e-07 1.680329473e-19 -0.002118478957)
(4.504500757e-07 1.679665929e-19 -0.002118516982)
(4.477104528e-07 1.772992989e-19 -0.002118555112)
(4.432575449e-07 1.853684619e-19 -0.002118593268)
(4.371228794e-07 2.031402097e-19 -0.002118631366)
(4.293766707e-07 2.202933449e-19 -0.002118669332)
(4.201024048e-07 2.37966047e-19 -0.002118707086)
(4.0936582e-07 2.560881928e-19 -0.002118744544)
(3.972167926e-07 2.661804321e-19 -0.002118781615)
(3.83735384e-07 2.686740893e-19 -0.002118818204)
(3.69030436e-07 2.719245005e-19 -0.002118854212)
(3.531811691e-07 2.758100328e-19 -0.00211888953)
(3.362246655e-07 2.800981668e-19 -0.002118924035)
(3.18206914e-07 2.845780494e-19 -0.00211895759)
(2.992106238e-07 2.892345657e-19 -0.002118990057)
(2.793042457e-07 2.941976042e-19 -0.002119021282)
(2.585207528e-07 2.994560279e-19 -0.002119051098)
(2.369011467e-07 3.049881749e-19 -0.002119079323)
(2.145173481e-07 3.107486659e-19 -0.002119105771)
(1.914298893e-07 3.166580329e-19 -0.00211913024)
(1.676699086e-07 3.169123047e-19 -0.002119152515)
(1.432820541e-07 3.169347119e-19 -0.002119172369)
(1.183307137e-07 3.166343273e-19 -0.002119189568)
(9.283999884e-08 3.159899404e-19 -0.002119203864)
(6.683760961e-08 3.149432382e-19 -0.002119214997)
(4.052971382e-08 3.13499068e-19 -0.002119222702)
(1.441170307e-08 3.124301135e-19 -0.002119226699)
(2.110929469e-08 7.844093202e-20 -0.002119217189)
(5.511646888e-08 1.557034475e-19 -0.002119220063)
(8.696335703e-08 2.05315037e-19 -0.002119226241)
(1.192471152e-07 2.482450636e-19 -0.002119235374)
(1.507091504e-07 2.883867957e-19 -0.002119247246)
(1.810038162e-07 3.257306004e-19 -0.002119261668)
(2.100171271e-07 3.689141709e-19 -0.002119278469)
(2.37670149e-07 4.247485193e-19 -0.002119297482)
(2.638881239e-07 4.069755432e-19 -0.002119318543)
(2.88602533e-07 4.177529647e-19 -0.0021193415)
(3.117573284e-07 4.55945603e-19 -0.002119366204)
(3.333065719e-07 3.957893578e-19 -0.002119392513)
(3.532126793e-07 3.637636856e-19 -0.002119420292)
(3.714388568e-07 3.232173817e-19 -0.002119449412)
(3.879564604e-07 2.956986429e-19 -0.002119479748)
(4.027405007e-07 2.764875035e-19 -0.002119511182)
(4.157634965e-07 2.625852414e-19 -0.002119543598)
(4.270135495e-07 2.521291054e-19 -0.002119576889)
(4.364760299e-07 2.439284174e-19 -0.002119610957)
(4.44133993e-07 2.391775539e-19 -0.002119645701)
(4.49984224e-07 2.358183934e-19 -0.002119681027)
(4.540196714e-07 2.333171389e-19 -0.002119716847)
(4.562138348e-07 2.313286335e-19 -0.002119753071)
(4.565790071e-07 2.283560733e-19 -0.002119789617)
(4.551639526e-07 2.259494977e-19 -0.002119826407)
(4.520030418e-07 2.247857141e-19 -0.002119863368)
(4.471160066e-07 2.237698038e-19 -0.002119900421)
(4.405590057e-07 2.210204464e-19 -0.00211993749)
(4.324263683e-07 2.174220821e-19 -0.002119974505)
(4.227935134e-07 2.231915374e-19 -0.002120011385)
(4.117092693e-07 2.277314895e-19 -0.002120048045)
(3.992419361e-07 2.317335345e-19 -0.002120084392)
(3.855006711e-07 2.357064406e-19 -0.002120120335)
(3.705737951e-07 2.384513941e-19 -0.002120155771)
(3.545007654e-07 2.481390426e-19 -0.002120190581)
(3.373222718e-07 2.569531413e-19 -0.002120224637)
(3.191199509e-07 2.575825889e-19 -0.002120257803)
(2.999692052e-07 2.574997926e-19 -0.002120289937)
(2.799055749e-07 2.637061675e-19 -0.002120320875)
(2.589667294e-07 2.694728656e-19 -0.002120350444)
(2.372249742e-07 2.749984357e-19 -0.002120378464)
(2.147478356e-07 2.805986224e-19 -0.002120404743)
(1.915669304e-07 2.864637243e-19 -0.002120429071)
(1.677233203e-07 2.934397813e-19 -0.002120451229)
(1.432873542e-07 2.953118232e-19 -0.002120470991)
(1.183001168e-07 2.976495063e-19 -0.002120488117)
(9.277537184e-08 3.005343931e-19 -0.002120502354)
(6.677444034e-08 3.042412625e-19 -0.002120513445)
(4.049037172e-08 3.045082441e-19 -0.002120521121)
(1.439045602e-08 3.058988515e-19 -0.002120525101)
(2.1499832e-08 1.98732783e-19 -0.002120516773)
(5.61311442e-08 5.042529374e-19 -0.002120519502)
(8.855170976e-08 4.976214898e-19 -0.002120525379)
(1.214043019e-07 3.42997585e-19 -0.002120534072)
(1.534015749e-07 2.703241215e-19 -0.002120545374)
(1.841916643e-07 2.412375285e-19 -0.00212055911)
(2.136563585e-07 2.323605831e-19 -0.002120575116)
(2.417093173e-07 2.330894084e-19 -0.00212059324)
(2.682783521e-07 2.397439034e-19 -0.002120613331)
(2.93298224e-07 2.612062002e-19 -0.002120635249)
(3.167138588e-07 2.814448196e-19 -0.002120658854)
(3.384759765e-07 2.896295129e-19 -0.002120684016)
(3.585440679e-07 2.915020906e-19 -0.002120710611)
(3.768789854e-07 2.839919565e-19 -0.002120738517)
(3.93449803e-07 2.758971093e-19 -0.002120767621)
(4.082261215e-07 2.697944395e-19 -0.002120797811)
(4.211885374e-07 2.664145542e-19 -0.002120828983)
(4.323375739e-07 2.660585665e-19 -0.002120861041)
(4.416420731e-07 2.503659611e-19 -0.00212089389)
(4.490823837e-07 2.561856926e-19 -0.002120927437)
(4.546636776e-07 2.638245171e-19 -0.002120961594)
(4.583777208e-07 2.72841143e-19 -0.00212099628)
(4.602165146e-07 2.831560837e-19 -0.00212103141)
(4.602129366e-07 2.802078975e-19 -0.002121066914)
(4.584213559e-07 2.782407296e-19 -0.002121102721)
(4.54871365e-07 2.74747716e-19 -0.002121138758)
(4.496042529e-07 2.714570195e-19 -0.002121174951)
(4.427056797e-07 2.561376733e-19 -0.002121211232)
(4.342637045e-07 2.509290274e-19 -0.002121247528)
(4.243317539e-07 2.446802616e-19 -0.002121283758)
(4.129692916e-07 2.368590495e-19 -0.002121319833)
(4.002818092e-07 2.370485741e-19 -0.002121355667)
(3.863656994e-07 2.448285946e-19 -0.002121391163)
(3.712627171e-07 2.50875614e-19 -0.002121426209)
(3.550094898e-07 2.540853231e-19 -0.002121460681)
(3.376855631e-07 2.557940159e-19 -0.00212149445)
(3.193715761e-07 2.567187923e-19 -0.002121527381)
(3.001060935e-07 2.561644502e-19 -0.002121559317)
(2.799250025e-07 2.533241513e-19 -0.002121590093)
(2.589003765e-07 2.488090406e-19 -0.002121619533)
(2.371043916e-07 2.357059532e-19 -0.002121647453)
(2.145701803e-07 2.267300586e-19 -0.002121673653)
(1.913367844e-07 2.214373305e-19 -0.002121697919)
(1.674764996e-07 2.197235067e-19 -0.002121720033)
(1.430379651e-07 2.27640047e-19 -0.002121739762)
(1.180470155e-07 2.334935891e-19 -0.002121756861)
(9.254991258e-08 2.376844968e-19 -0.002121771079)
(6.659804533e-08 2.403118784e-19 -0.002121782157)
(4.036025421e-08 2.422405387e-19 -0.002121789822)
(1.433016478e-08 2.435505389e-19 -0.002121793794)
(2.181745641e-08 3.065110077e-20 -0.0021217804)
(5.695568396e-08 1.88845454e-20 -0.002121783005)
(8.984116477e-08 -1.685824775e-20 -0.002121788625)
(1.231532475e-07 -5.925868457e-20 -0.002121796942)
(1.55578648e-07 -1.231887166e-19 -0.002121807759)
(1.867569955e-07 -5.603872411e-20 -0.002121820911)
(2.165784623e-07 -2.317308439e-20 -0.002121836244)
(2.449576998e-07 -8.618679111e-21 -0.002121853618)
(2.718172927e-07 9.006369975e-21 -0.002121872893)
(2.970858683e-07 2.879232344e-20 -0.002121893935)
(3.206967535e-07 3.291480193e-20 -0.002121916618)
(3.426078599e-07 8.37424079e-20 -0.002121940815)
(3.627827008e-07 1.113522986e-19 -0.002121966413)
(3.811746833e-07 1.501252035e-19 -0.002121993298)
(3.97753078e-07 1.757607863e-19 -0.002122021367)
(4.124862419e-07 1.928022957e-19 -0.00212205052)
(4.253608926e-07 2.042153015e-19 -0.002122080661)
(4.36378989e-07 2.118842342e-19 -0.002122111699)
(4.454908267e-07 2.186486384e-19 -0.002122143542)
(4.526811012e-07 2.412144967e-19 -0.002122176103)
(4.579750945e-07 2.616266381e-19 -0.002122209306)
(4.61359837e-07 2.803684369e-19 -0.002122243074)
(4.628494945e-07 2.977188471e-19 -0.00212227733)
(4.625058012e-07 3.136287007e-19 -0.002122312011)
(4.60373674e-07 3.286168214e-19 -0.002122347052)
(4.564802257e-07 3.265940324e-19 -0.002122382379)
(4.508996177e-07 3.24452189e-19 -0.002122417925)
(4.437319266e-07 3.225993732e-19 -0.002122453625)
(4.350363067e-07 3.205677892e-19 -0.002122489403)
(4.248653902e-07 3.192692913e-19 -0.002122525173)
(4.133174876e-07 3.18846959e-19 -0.002122560853)
(4.004941592e-07 3.195192747e-19 -0.002122596353)
(3.864418351e-07 3.212755141e-19 -0.002122631566)
(3.711958698e-07 3.23945466e-19 -0.002122666375)
(3.548314833e-07 3.181586345e-19 -0.002122700656)
(3.374313903e-07 3.126124477e-19 -0.00212273428)
(3.190386665e-07 3.154495643e-19 -0.002122767098)
(2.99689391e-07 3.182347037e-19 -0.00212279895)
(2.794548359e-07 3.130307249e-19 -0.002122829669)
(2.58409116e-07 3.074250435e-19 -0.002122859077)
(2.365877413e-07 3.026938968e-19 -0.002122886982)
(2.140297886e-07 2.95741496e-19 -0.002122913177)
(1.908092508e-07 2.870275755e-19 -0.00212293745)
(1.669767129e-07 2.834585645e-19 -0.002122959577)
(1.425622234e-07 2.84272182e-19 -0.002122979319)
(1.176243019e-07 2.831749755e-19 -0.002122996434)
(9.220165526e-08 2.806399655e-19 -0.002123010668)
(6.632347237e-08 2.760929379e-19 -0.002123021756)
(4.018035788e-08 2.739725981e-19 -0.002123029428)
(1.42599777e-08 2.741335626e-19 -0.002123033405)
(2.206526665e-08 -9.980683574e-21 -0.002123009667)
(5.760195179e-08 -9.796943626e-20 -0.002123012165)
(9.085798268e-08 -2.244855937e-19 -0.002123017563)
(1.245377639e-07 -1.325595966e-19 -0.002123025559)
(1.573073409e-07 -1.136354912e-19 -0.002123035964)
(1.88800265e-07 5.690747053e-21 -0.002123048624)
(2.189118983e-07 8.421599216e-20 -0.002123063394)
(2.475516214e-07 1.411311137e-19 -0.002123080141)
(2.746253498e-07 1.850194148e-19 -0.002123098732)
(3.000698625e-07 1.354836918e-19 -0.002123119038)
(3.238149356e-07 1.578063679e-19 -0.002123140944)
(3.458174314e-07 1.740663109e-19 -0.002123164334)
(3.660356321e-07 1.862447916e-19 -0.002123189102)
(3.844271605e-07 1.960677956e-19 -0.00212321514)
(4.009770675e-07 2.033639904e-19 -0.002123242355)
(4.156412651e-07 2.079090126e-19 -0.002123270653)
(4.283947682e-07 2.091228281e-19 -0.002123299945)
(4.392226902e-07 2.063143696e-19 -0.002123330145)
(4.480928e-07 2.393873212e-19 -0.002123361161)
(4.550187815e-07 2.670066535e-19 -0.002123392924)
(4.600155616e-07 2.925286867e-19 -0.002123425362)
(4.630770716e-07 3.172285272e-19 -0.002123458399)
(4.642503702e-07 3.420404779e-19 -0.002123491975)
(4.636059746e-07 3.528489424e-19 -0.002123526027)
(4.611691702e-07 3.650438501e-19 -0.002123560489)
(4.569919277e-07 3.649453192e-19 -0.002123595293)
(4.511741985e-07 3.668886414e-19 -0.002123630379)
(4.437905767e-07 3.710895732e-19 -0.002123665675)
(4.348913723e-07 3.656381883e-19 -0.002123701103)
(4.245633285e-07 3.624535255e-19 -0.002123736581)
(4.129091944e-07 3.609634073e-19 -0.002123772026)
(3.999825991e-07 3.606408626e-19 -0.002123807338)
(3.858181541e-07 3.609534902e-19 -0.002123842403)
(3.704874977e-07 3.617784917e-19 -0.002123877104)
(3.540750464e-07 3.629327469e-19 -0.002123911318)
(3.366268242e-07 3.646575335e-19 -0.002123944904)
(3.181791499e-07 3.671577481e-19 -0.002123977708)
(2.988037298e-07 3.703871197e-19 -0.002124009569)
(2.785755707e-07 3.744541361e-19 -0.002124040318)
(2.575318568e-07 3.796320198e-19 -0.002124069768)
(2.357132398e-07 3.938552141e-19 -0.002124097721)
(2.131956154e-07 4.029050148e-19 -0.002124123971)
(1.90029664e-07 4.074147127e-19 -0.002124148302)
(1.662458932e-07 4.133037663e-19 -0.002124170482)
(1.419088861e-07 4.100726872e-19 -0.002124190276)
(1.170688926e-07 4.094979745e-19 -0.002124207435)
(9.174245156e-08 4.117025132e-19 -0.002124221704)
(6.59834321e-08 4.121152559e-19 -0.002124232818)
(3.99785755e-08 4.128388174e-19 -0.002124240508)
(1.41846195e-08 4.135146041e-19 -0.002124244491)
(2.225453993e-08 1.826846433e-19 -0.002124206076)
(5.809600862e-08 4.595490096e-19 -0.002124208485)
(9.164487569e-08 4.102182247e-19 -0.002124213696)
(1.256199277e-07 4.636765538e-19 -0.00212422142)
(1.586611443e-07 5.873335998e-19 -0.002124231479)
(1.90398557e-07 4.666250007e-19 -0.002124243725)
(2.207304561e-07 4.290556534e-19 -0.002124258019)
(2.495598035e-07 4.320330084e-19 -0.002124274232)
(2.767759623e-07 4.43584648e-19 -0.002124292242)
(3.023304023e-07 3.765878961e-19 -0.002124311928)
(3.261577782e-07 3.305189644e-19 -0.002124333183)
(3.482029991e-07 3.028712893e-19 -0.0021243559)
(3.684173458e-07 2.885553052e-19 -0.002124379979)
(3.867685663e-07 2.835226287e-19 -0.002124405323)
(4.032346322e-07 2.850861239e-19 -0.002124431842)
(4.177671933e-07 2.913062683e-19 -0.002124459439)
(4.303491617e-07 3.008042792e-19 -0.002124488035)
(4.409457609e-07 3.13723742e-19 -0.00212451755)
(4.495548732e-07 3.297653906e-19 -0.002124547905)
(4.562144558e-07 3.278507719e-19 -0.002124579037)
(4.609124283e-07 3.272298934e-19 -0.002124610876)
(4.636731079e-07 3.269246446e-19 -0.002124643356)
(4.645739118e-07 3.265365395e-19 -0.002124676423)
(4.636536225e-07 3.27705711e-19 -0.002124710014)
(4.609498463e-07 3.288138626e-19 -0.002124744062)
(4.565539079e-07 3.296084155e-19 -0.002124778509)
(4.505543496e-07 3.302728937e-19 -0.002124813293)
(4.429991827e-07 3.309179926e-19 -0.002124848336)
(4.339636068e-07 3.31570003e-19 -0.002124883562)
(4.235513044e-07 3.443101104e-19 -0.002124918891)
(4.11822239e-07 3.584872789e-19 -0.002124954231)
(3.988101078e-07 3.753333762e-19 -0.002124989472)
(3.845838054e-07 3.771207594e-19 -0.002125024503)
(3.692292456e-07 3.821721567e-19 -0.002125059208)
(3.527939112e-07 3.804672057e-19 -0.002125093451)
(3.353143541e-07 3.810113688e-19 -0.002125127086)
(3.168639284e-07 3.838808181e-19 -0.002125159958)
(2.975174979e-07 3.809245034e-19 -0.002125191907)
(2.773132332e-07 3.800556006e-19 -0.00212522275)
(2.562948431e-07 3.810827464e-19 -0.002125252298)
(2.345400728e-07 3.838639452e-19 -0.002125280353)
(2.120981319e-07 3.881161075e-19 -0.002125306706)
(1.889999044e-07 3.936878463e-19 -0.00212533113)
(1.653140204e-07 3.933373278e-19 -0.002125353399)
(1.410937686e-07 3.933738553e-19 -0.00212537327)
(1.163668285e-07 3.927923401e-19 -0.002125390495)
(9.117663062e-08 3.865067096e-19 -0.002125404815)
(6.557156801e-08 3.818186186e-19 -0.002125415969)
(3.971346118e-08 3.817561613e-19 -0.002125423682)
(1.407912251e-08 3.827974054e-19 -0.002125427674)
(2.240016204e-08 9.318434653e-20 -0.002125371008)
(5.846909072e-08 1.929324413e-19 -0.002125373347)
(9.222639768e-08 3.20403838e-19 -0.002125378407)
(1.264217601e-07 4.693740061e-19 -0.002125385902)
(1.596717638e-07 4.494006414e-19 -0.002125395668)
(1.915881702e-07 3.208177099e-19 -0.002125407565)
(2.220606762e-07 2.674796893e-19 -0.002125421459)
(2.510064358e-07 2.481679568e-19 -0.002125437221)
(2.783157993e-07 2.491558587e-19 -0.002125454743)
(3.039295874e-07 3.199784398e-19 -0.002125473914)
(3.277828177e-07 2.852870333e-19 -0.00212549463)
(3.498233419e-07 2.711733921e-19 -0.002125516791)
(3.700016103e-07 2.69602531e-19 -0.002125540301)
(3.882741067e-07 2.757355009e-19 -0.002125565072)
(4.045944479e-07 2.901262442e-19 -0.002125591014)
(4.189330351e-07 3.142880602e-19 -0.002125618039)
(4.312934092e-07 3.253967396e-19 -0.002125646075)
(4.416427119e-07 3.493248198e-19 -0.002125675043)
(4.499952188e-07 3.667752345e-19 -0.002125704882)
(4.563734984e-07 3.623675591e-19 -0.002125735529)
(4.607826887e-07 3.523743826e-19 -0.002125766915)
(4.632845583e-07 3.34029918e-19 -0.002125798989)
(4.639394005e-07 3.058776036e-19 -0.002125831695)
(4.627726258e-07 2.987097178e-19 -0.002125864968)
(4.598631243e-07 2.940486411e-19 -0.00212589875)
(4.553121398e-07 2.905975466e-19 -0.002125932985)
(4.491666584e-07 2.873816456e-19 -0.0021259676)
(4.414900515e-07 2.833467071e-19 -0.00212600252)
(4.323866061e-07 2.770385995e-19 -0.002126037673)
(4.219218799e-07 2.880877761e-19 -0.002126072969)
(4.101283721e-07 2.971550598e-19 -0.002126108307)
(3.970729447e-07 2.948802498e-19 -0.00212614358)
(3.828428123e-07 2.941617316e-19 -0.002126178678)
(3.674854729e-07 2.931252303e-19 -0.002126213471)
(3.510377062e-07 2.932427744e-19 -0.00212624782)
(3.335757244e-07 2.930482526e-19 -0.002126281578)
(3.151732192e-07 2.9269104e-19 -0.00212631459)
(2.958686815e-07 2.938154827e-19 -0.002126346682)
(2.7571023e-07 2.947659922e-19 -0.002126377671)
(2.54776665e-07 2.953769348e-19 -0.002126407367)
(2.331147086e-07 2.955042066e-19 -0.002126435567)
(2.107566937e-07 2.950111575e-19 -0.002126462052)
(1.877762249e-07 2.937783683e-19 -0.002126486603)
(1.642248599e-07 2.916875667e-19 -0.002126508985)
(1.40133045e-07 2.885512866e-19 -0.002126528954)
(1.15560216e-07 2.849988061e-19 -0.002126546261)
(9.054052539e-08 2.773803557e-19 -0.002126560649)
(6.510003864e-08 2.728139449e-19 -0.00212657185)
(3.942343968e-08 2.689591497e-19 -0.002126579594)
(1.397356038e-08 2.661986104e-19 -0.002126583603)
(2.251014253e-08 3.625513529e-19 -0.002126505722)
(5.874748775e-08 -1.131221693e-19 -0.002126508002)
(9.264105984e-08 -2.503477994e-20 -0.00212651294)
(1.269766705e-07 7.176693918e-21 -0.002126520251)
(1.603711117e-07 -4.072178041e-20 -0.002126529772)
(1.924104818e-07 6.976560148e-21 -0.002126541376)
(2.229581515e-07 1.00761788e-23 -0.002126554938)
(2.519558073e-07 -3.287501891e-20 -0.002126570333)
(2.79305943e-07 -3.250651419e-20 -0.002126587459)
(3.049258816e-07 4.043315268e-20 -0.002126606212)
(3.287570578e-07 9.129716763e-20 -0.002126626488)
(3.507353206e-07 1.301304416e-19 -0.002126648198)
(3.708093715e-07 1.65660997e-19 -0.002126671243)
(3.88938063e-07 1.405028398e-19 -0.002126695542)
(4.050740846e-07 1.167950771e-19 -0.002126721009)
(4.192043406e-07 1.169473278e-19 -0.002126747574)
(4.313152836e-07 1.137672276e-19 -0.002126775166)
(4.413996301e-07 1.038921992e-19 -0.002126803714)
(4.494968288e-07 1.296112693e-19 -0.002126833162)
(4.556017336e-07 1.505914635e-19 -0.002126863448)
(4.597536869e-07 1.683298177e-19 -0.002126894515)
(4.620336131e-07 1.826867094e-19 -0.002126926315)
(4.624651901e-07 1.962639103e-19 -0.002126958785)
(4.611046866e-07 2.081583373e-19 -0.002126991868)
(4.580553572e-07 2.182911156e-19 -0.002127025512)
(4.533743278e-07 2.264720062e-19 -0.00212705965)
(4.471171788e-07 2.329319331e-19 -0.002127094209)
(4.393845505e-07 2.377297035e-19 -0.00212712912)
(4.302461359e-07 2.408663702e-19 -0.002127164301)
(4.197330657e-07 2.281260568e-19 -0.002127199655)
(4.079108272e-07 2.123921554e-19 -0.00212723508)
(3.948677891e-07 1.938220778e-19 -0.002127270472)
(3.806500975e-07 2.013880728e-19 -0.002127305708)
(3.6529469e-07 2.041141154e-19 -0.002127340655)
(3.488818096e-07 2.023945992e-19 -0.002127375174)
(3.31482988e-07 1.968130266e-19 -0.002127409115)
(3.131364644e-07 1.964129847e-19 -0.002127442312)
(2.938957347e-07 2.013940476e-19 -0.00212747459)
(2.738377427e-07 2.112202324e-19 -0.002127505765)
(2.530080433e-07 2.178164727e-19 -0.002127535642)
(2.314435723e-07 2.212945403e-19 -0.00212756401)
(2.092220901e-07 2.216762809e-19 -0.002127590655)
(1.863919017e-07 2.189665387e-19 -0.002127615351)
(1.629817754e-07 2.204263787e-19 -0.002127637859)
(1.390614901e-07 2.197791635e-19 -0.002127657938)
(1.146743529e-07 2.216918079e-19 -0.002127675337)
(8.983160725e-08 2.288565237e-19 -0.002127689794)
(6.458934641e-08 2.343935465e-19 -0.002127701046)
(3.911918602e-08 2.379954469e-19 -0.002127708823)
(1.38611636e-08 2.36552479e-19 -0.002127712844)
(2.258311854e-08 -1.309602329e-19 -0.002127611411)
(5.893330327e-08 -3.96251833e-19 -0.002127613639)
(9.291416971e-08 -2.971760661e-19 -0.002127618474)
(1.27312748e-07 -3.063493381e-19 -0.002127625638)
(1.607713474e-07 -1.333854153e-19 -0.00212763496)
(1.928764403e-07 -3.586555276e-20 -0.002127646318)
(2.234591547e-07 -8.694066671e-21 -0.002127659604)
(2.524626628e-07 -1.11222392e-20 -0.002127674703)
(2.798031424e-07 -3.795513152e-20 -0.002127691504)
(3.053728806e-07 -2.947224743e-20 -0.002127709914)
(3.291194114e-07 5.908830603e-21 -0.00212772983)
(3.509706526e-07 2.595154983e-20 -0.002127751168)
(3.708775475e-07 3.532464211e-20 -0.002127773836)
(3.888045357e-07 4.036421408e-20 -0.00212779776)
(4.047183187e-07 3.754677702e-20 -0.002127822859)
(4.186157416e-07 2.759898218e-20 -0.002127849071)
(4.304700376e-07 3.670447659e-20 -0.002127876325)
(4.403041612e-07 3.60631162e-20 -0.002127904567)
(4.481409522e-07 1.899304017e-20 -0.002127933739)
(4.539955965e-07 2.868702116e-20 -0.00212796378)
(4.579414159e-07 4.604717767e-20 -0.002127994647)
(4.600150404e-07 7.342887345e-20 -0.002128026284)
(4.602549835e-07 1.123519911e-19 -0.00212805863)
(4.587603906e-07 1.464974466e-19 -0.002128091637)
(4.555987707e-07 1.779449176e-19 -0.002128125244)
(4.508179606e-07 1.933533597e-19 -0.002128159383)
(4.445137693e-07 2.088471196e-19 -0.002128193987)
(4.367598386e-07 2.256378673e-19 -0.00212822898)
(4.275856463e-07 2.45644244e-19 -0.002128264268)
(4.170553688e-07 2.331110595e-19 -0.002128299757)
(4.052565839e-07 2.236109068e-19 -0.002128335346)
(3.922349434e-07 2.27546291e-19 -0.00212837092)
(3.780295381e-07 2.316342125e-19 -0.002128406351)
(3.627238554e-07 2.364142219e-19 -0.002128441507)
(3.463858205e-07 2.428187488e-19 -0.002128476246)
(3.290528598e-07 2.496042761e-19 -0.002128510409)
(3.107853046e-07 2.555408243e-19 -0.002128543828)
(2.916572474e-07 2.614893721e-19 -0.002128576326)
(2.717125935e-07 2.654088883e-19 -0.002128607715)
(2.509935535e-07 2.690949943e-19 -0.002128637793)
(2.295786714e-07 2.725205912e-19 -0.002128666351)
(2.075158295e-07 2.758039644e-19 -0.002128693172)
(1.848352584e-07 2.792342113e-19 -0.002128718022)
(1.616095202e-07 2.819917197e-19 -0.002128740667)
(1.378849262e-07 2.855143017e-19 -0.002128760864)
(1.136831696e-07 2.891783982e-19 -0.002128778356)
(8.904843031e-08 2.915940883e-19 -0.002128792886)
(6.402141239e-08 2.953234887e-19 -0.002128804191)
(3.87582809e-08 2.95792334e-19 -0.002128811998)
(1.37233068e-08 2.972647472e-19 -0.002128816033)
(2.26167403e-08 -4.03679891e-19 -0.002128689188)
(5.901851481e-08 -7.619056957e-20 -0.002128691373)
(9.303949641e-08 1.613414169e-20 -0.002128696123)
(1.274522265e-07 9.409658849e-20 -0.002128703167)
(1.608948708e-07 4.308899692e-20 -0.00212871234)
(1.929960864e-07 4.906410824e-20 -0.002128723507)
(2.235786181e-07 6.705624548e-20 -0.002128736571)
(2.525303258e-07 1.513884197e-19 -0.002128751428)
(2.797903374e-07 1.152343687e-19 -0.002128767963)
(3.052548439e-07 8.844298207e-20 -0.002128786089)
(3.28859808e-07 6.351669586e-20 -0.002128805711)
(3.505417658e-07 3.269795604e-20 -0.002128826744)
(3.702542718e-07 -6.81044284e-21 -0.002128849113)
(3.879589043e-07 4.866473374e-20 -0.00212887274)
(4.036340435e-07 6.226565181e-20 -0.00212889756)
(4.17271294e-07 7.018755533e-20 -0.002128923509)
(4.288668754e-07 1.05695576e-19 -0.002128950524)
(4.384575351e-07 1.4079237e-19 -0.002128978559)
(4.460446864e-07 1.292022947e-19 -0.002129007552)
(4.516853934e-07 1.20943159e-19 -0.002129037456)
(4.55436486e-07 1.154031178e-19 -0.002129068223)
(4.573210072e-07 1.108880274e-19 -0.002129099792)
(4.574274418e-07 1.239766192e-19 -0.002129132115)
(4.558346047e-07 1.355716955e-19 -0.00212916514)
(4.525848712e-07 1.45488443e-19 -0.0021291988)
(4.477644509e-07 1.547382301e-19 -0.002129233031)
(4.414473918e-07 1.621979472e-19 -0.002129267762)
(4.336649219e-07 1.675706288e-19 -0.002129302904)
(4.24480628e-07 1.692182016e-19 -0.002129338367)
(4.139799512e-07 1.913117613e-19 -0.002129374057)
(4.022079667e-07 2.105845724e-19 -0.002129409863)
(3.89206757e-07 2.293721345e-19 -0.002129445665)
(3.750630355e-07 2.370417321e-19 -0.002129481339)
(3.598400273e-07 2.459799229e-19 -0.002129516748)
(3.435736803e-07 2.688469081e-19 -0.002129551739)
(3.263325175e-07 2.940769295e-19 -0.002129586153)
(3.081866781e-07 3.11752874e-19 -0.002129619821)
(2.89178116e-07 3.227281706e-19 -0.00212965256)
(2.693576697e-07 3.266005911e-19 -0.002129684176)
(2.488005744e-07 3.318437542e-19 -0.002129714469)
(2.275523777e-07 3.328693344e-19 -0.002129743228)
(2.056481734e-07 3.293657014e-19 -0.002129770227)
(1.831610656e-07 3.291606297e-19 -0.002129795239)
(1.601390757e-07 3.242314401e-19 -0.002129818025)
(1.366086578e-07 3.221622292e-19 -0.002129838338)
(1.126239734e-07 3.191460799e-19 -0.002129855924)
(8.821435137e-08 3.135416761e-19 -0.002129870527)
(6.340973608e-08 3.099702233e-19 -0.002129881882)
(3.838672404e-08 3.027598466e-19 -0.002129889721)
(1.359009145e-08 3.005594217e-19 -0.00212989377)
(2.261558443e-08 -4.301839329e-20 -0.002129740146)
(5.901299832e-08 -2.254709907e-19 -0.002129742292)
(9.302730775e-08 -7.278732768e-20 -0.002129746965)
(1.27422903e-07 -3.227538409e-20 -0.002129753906)
(1.608063084e-07 -6.748776163e-20 -0.002129762955)
(1.928246252e-07 1.972680215e-20 -0.002129773978)
(2.233338041e-07 7.013491937e-20 -0.002129786861)
(2.521830608e-07 1.033434764e-19 -0.002129801515)
(2.79297828e-07 1.380504454e-19 -0.002129817837)
(3.046020127e-07 1.80243343e-19 -0.00212983573)
(3.280068526e-07 1.94283776e-19 -0.002129855119)
(3.494709476e-07 1.515015226e-19 -0.002129875914)
(3.689469575e-07 1.24536295e-19 -0.002129898054)
(3.864015291e-07 1.367331586e-19 -0.00212992146)
(4.018247326e-07 1.505204699e-19 -0.00212994608)
(4.152026973e-07 1.603998657e-19 -0.002129971847)
(4.265650065e-07 1.659483849e-19 -0.002129998714)
(4.359206933e-07 1.685752591e-19 -0.002130026625)
(4.432943892e-07 1.664265944e-19 -0.002130055529)
(4.487536356e-07 1.594773367e-19 -0.002130085385)
(4.523214347e-07 1.678370075e-19 -0.002130116133)