/*--------------------------------*- C++ -*----------------------------------*\
  =========                 |
  \\      /  F ield         | OpenFOAM: The Open Source CFD Toolbox
   \\    /   O peration     | Website:  https://openfoam.org
    \\  /    A nd           | Version:  7
     \\/     M anipulation  |
\*---------------------------------------------------------------------------*/
FoamFile
{
    version     2.0;
    format      ascii;
    class       volScalarField;
    location    "0.0012";
    object      rho;
}
// * * * * * * * * * * * * * * * * * * * * * * * * * * * * * * * * * * * * * //

dimensions      [1 -3 0 0 0 0 0];

internalField   nonuniform List<scalar> 
1167
(
948.0321026
947.9832934
947.8783752
947.7224203
947.5176705
947.2658497
946.9681704
946.6253913
946.2383258
945.8072352
945.3323013
944.8137973
944.2515424
943.6454145
942.9952871
942.3010186
941.5625026
940.77969
939.9527759
939.0819488
938.1674911
937.2100692
936.2103839
935.169371
934.0880546
932.9679648
931.810541
930.6174847
929.3907133
928.1324794
926.845109
925.5310444
924.1929899
922.8336704
921.4560582
947.9045929
947.8543208
947.7462461
947.5855687
947.3745829
947.1151718
946.8082175
946.4548802
946.0555288
945.6109197
945.121039
944.5860454
944.0059942
943.3809279
942.7107739
941.9955583
941.2353657
940.4303531
939.5808115
938.6871849
937.7503781
936.7709131
935.7501049
934.6889354
933.5890214
932.4519628
931.2795722
930.0738445
928.8370469
927.5716537
926.2801518
924.9652724
923.6298305
922.2767054
920.9089464
919.5295833
918.1417572
916.7485551
915.353161
913.9585129
912.5676137
911.183406
909.808633
908.4459735
907.0977556
905.7661609
904.4530658
903.1600396
901.8880987
900.6378794
947.7747127
947.7229421
947.6116348
947.4461246
947.2289372
946.9616025
946.6452903
946.2811234
945.8695393
945.4110404
944.9060954
944.3546903
943.7569804
943.1130872
942.4231246
941.6872669
940.9057558
940.0790058
939.2076919
938.2924582
937.334164
936.3341856
935.2935708
934.2140217
933.0972215
931.9450995
930.7597575
929.5434517
928.2987975
927.0283477
925.7347777
924.421001
923.0899071
921.7446193
920.3881019
919.0234253
917.6536722
916.2818416
914.9109362
913.543863
912.1834793
910.8324176
909.4931505
908.1680666
906.8593055
905.5687592
904.2979998
903.0483667
901.820579
900.6150814
947.6424325
947.5891335
947.47453
947.3042043
947.0805951
946.8052081
946.4795328
946.104275
945.6803657
945.2080794
944.6878257
944.1200062
943.5047221
942.8421955
942.1327027
941.3765783
940.5744353
939.7268301
938.8344779
937.8985499
936.9201907
935.9008027
934.8419836
933.7456299
932.6136295
931.4482487
930.2518845
929.0270104
927.7763548
926.5026648
925.208837
923.8978622
922.5727013
921.236465
919.892177
918.5429765
917.1917914
915.8415042
914.4949884
913.1549439
911.8240586
910.5047501
909.1993218
907.9098936
906.6383138
905.3862126
904.1549065
902.9454659
901.7584524
900.5941429
947.5077273
947.4528758
947.3349934
947.1597906
946.9295942
946.6461502
946.3109256
945.9246449
945.4882001
945.0021521
944.4668168
943.8825904
943.2498465
942.5689553
941.8403609
941.0645829
940.2423251
939.3744078
938.4621483
937.5065385
936.5092641
935.4718251
934.3963364
933.2846273
932.1390896
930.9622864
929.7565902
928.5248231
927.2698683
925.9945958
924.7020567
923.3952673
922.0772996
920.7512264
919.4200591
918.086814
916.7543781
915.4255876
914.1030976
912.7894617
911.4871605
910.1983748
908.9251815
907.6694561
906.4328403
905.2167359
904.0222425
902.8502044
901.7010191
900.5748177
947.3705987
947.3142498
947.1930709
947.0128221
946.7759759
946.4845363
946.1395799
945.742324
945.2933509
944.7934708
944.2431397
943.6427726
942.9928648
942.2939437
941.546622
940.7516319
939.910058
939.0229
938.0914172
937.1173628
936.1022498
935.0482656
933.9573276
932.8318376
931.6744694
930.4876822
929.2742511
928.0371811
926.7794474
925.5040577
924.2141437
922.9127369
921.6029825
920.2878845
918.9704417
917.6535675
916.3400283
915.0325181
913.733542
912.4455275
911.1707297
909.9111316
908.6686228
907.4448337
906.241195
905.0589027
903.8988637
902.7617237
901.6477388
900.5569152
947.2311695
947.1732378
947.0486488
946.8633186
946.6199111
946.3203161
945.9657072
945.5573862
945.0960785
944.5824415
944.0171291
943.4008212
942.7340453
942.017502
941.2520721
940.4386698
939.5784278
938.672689
937.7232644
936.7316346
935.7001337
934.630681
933.5257667
932.3880529
931.2201476
930.0248559
928.8051876
927.5642553
926.305094
925.0308833
923.7447356
922.4497167
921.1489746
919.8454644
918.5421551
917.2418347
915.947139
914.6606405
913.3846769
912.1215265
910.8732159
909.64155
908.4282267
907.2346699
906.0621107
904.9115455
903.783814
902.6793086
901.5981637
900.5402783
947.0892697
947.0297472
946.9017327
946.7113063
946.4614049
946.1535645
945.7894511
945.3699827
944.896425
944.3692864
943.7893432
943.1573511
942.4740854
941.7404195
940.9573359
940.1260322
939.2479741
938.3247695
937.3581007
936.3503218
935.3033537
934.2198403
933.1023309
931.9536066
930.7765564
929.5741878
928.3497086
927.1062393
925.8469055
924.5749567
923.2935178
922.005735
920.7146519
919.4232027
918.1342586
916.8505049
915.5744688
914.3085586
913.0549793
911.8158547
910.5929899
909.3880309
908.2024908
907.0376142
905.8944515
904.7738101
903.6762909
902.6023569
901.5519181
900.5247755
946.9448923
946.8837763
946.7523321
946.5570124
946.3004194
945.9844317
945.6107927
945.1805054
944.6945837
944.1541218
943.5597979
942.9124929
942.2131505
941.4628133
940.6627212
939.8144323
938.9193599
937.9794318
936.9968452
935.9737126
934.9126543
933.8162722
932.6873378
931.5289423
930.3441558
929.1360325
927.907901
926.6629906
925.4045387
924.1358134
922.859931
921.5800568
920.2991529
919.0201161
917.745703
916.4784771
915.2208674
913.9751079
912.7432757
911.5273113
910.3288415
909.1493559
907.9901824
906.8525041
905.737133
904.6447048
903.5756984
902.5303566
901.5086839
900.510296
946.7980356
946.7353279
946.6006125
946.4002609
946.1370026
945.8130669
945.4298354
944.9888468
944.4909754
943.9372837
943.328797
942.666541
941.9516349
941.1852962
940.3689496
939.5041954
938.5929731
937.6374134
936.6397096
935.6025088
934.5284394
933.4202809
932.2813134
931.1145241
929.9230737
928.7103245
927.4796619
926.2343522
924.9777382
923.7130662
922.4434509
921.1720169
919.9016662
918.635255
917.3754117
916.1245734
914.8850756
913.6589781
912.4482406
911.2546161
910.0795785
908.9244756
907.7904541
906.6784592
905.5892962
904.523493
903.4813358
902.4628678
901.4681883
900.4967454
946.6487904
946.5845837
946.4464905
946.2410812
945.9712956
945.6393966
945.2468386
944.7951358
944.2855171
943.7190151
943.0967867
942.4200154
941.68999
940.9081286
940.0760794
939.1958295
938.2693548
937.2989467
936.2873177
935.2370152
934.1510068
933.0324469
931.8844638
930.7103276
929.5133608
928.2971293
927.0650054
925.8202857
924.5663612
923.3064426
922.0437042
920.7811679
919.5216921
918.2680331
917.0227137
915.7880617
914.5662679
913.3592673
912.1688952
910.9967132
909.8440565
908.7122387
907.6021635
906.5146321
905.4502578
904.4095317
903.3926848
902.3995712
901.4301956
900.484042
946.4971915
946.43141
946.2899325
946.0795049
945.8033836
945.4634901
945.0618137
944.5996187
944.078359
943.4993413
942.8637336
942.1728911
941.4282691
940.631575
939.7847265
938.8896337
937.9487192
936.9645792
935.9398583
934.8775646
933.7808137
932.6527621
931.4968496
930.3165739
929.1152651
927.8965168
926.6637753
925.4204461
924.1699126
922.9153571
921.6599604
920.4066525
919.1582412
917.9173696
916.6864554
915.4677194
914.2632409
913.0748292
911.9041793
910.7526765
909.6215327
908.5118409
907.4244684
906.3601672
905.3193335
904.3022545
903.3092902
902.3400709
901.3944998
900.472115
946.3431354
946.2757921
946.1309602
945.9157306
945.6331911
945.2855231
944.8747684
944.4024019
943.8698383
943.2785276
942.6299073
941.9255045
941.1669478
940.3560808
939.4949298
938.5858792
937.6314831
936.6343947
935.5976879
934.5244314
933.4178096
932.2814889
931.1188176
929.9332758
928.7285052
927.5081297
926.2756079
925.0344412
923.7879795
922.5393558
921.2917082
920.0479027
918.810704
917.582637
916.3659981
915.1629253
913.975311
912.8048671
911.6531588
910.5214721
909.4109398
908.3224595
907.2567314
906.2143843
905.1958653
904.2012489
903.2307438
902.2840629
901.3609177
900.4609016
946.1866373
946.117748
945.9696929
945.7496821
945.4607655
945.105571
944.6857995
944.2034644
943.6599358
943.0567829
942.3956036
941.6780914
940.9060697
940.0815943
939.207053
938.2848605
937.3177029
936.3087523
935.2609241
934.1776398
933.0623789
931.9186538
930.7500656
929.5602508
928.3530143
927.1319113
925.9004349
924.6620994
923.4202064
922.1779477
920.9383585
919.7042468
918.4782983
917.2629305
916.0603295
914.8725603
913.701411
912.5484483
911.4150862
910.3024483
909.2115119
908.1432642
907.0981961
906.076732
905.0793116
904.1059668
903.156686
902.2312835
901.3292877
900.4503463
946.0277351
945.9574108
945.8061859
945.581347
945.2862621
944.9235692
944.4951847
944.0029283
943.4486942
942.8340552
942.1607465
941.4306245
940.6457765
939.8085405
938.9212199
937.9865946
937.00774
935.9876145
934.9297084
933.8374098
932.7142744
931.5641524
930.3907044
929.1975896
927.9886329
926.7674855
925.5376878
924.3027436
923.0659088
921.830408
920.5991845
919.3749591
918.16032
916.957592
915.7688692
914.5960713
913.440842
912.3047033
911.188993
910.0947016
909.0226656
907.973594
906.94819
905.9466507
904.9691828
904.0159912
903.0867909
902.1814957
901.2994647
900.4403998
945.8666287
945.7948009
945.6403543
945.4107626
945.1097367
944.7395721
944.3027691
943.8010562
943.2363578
942.6105482
941.9255665
941.1834372
940.3863897
939.5368375
938.6374831
937.6913792
936.7014245
935.6712204
934.6040368
933.5035539
932.3736661
931.2180377
930.0404579
928.8447977
927.6349432
926.4145184
925.1870921
923.9561257
922.7248464
921.4964218
920.2737118
919.0594222
917.856029
916.6657542
915.4906043
914.3324557
913.1927833
912.0730099
910.9742502
909.8974638
908.8435376
907.8129337
906.8061327
905.8235482
904.8650739
903.9309471
903.0208066
902.1344816
901.2713164
900.4310168
945.7031592
945.6298503
945.4722324
945.238139
944.9311138
944.5538139
944.1086106
943.5976956
943.022951
942.3864135
941.6901862
940.9364821
940.1277329
939.266633
938.3560822
937.399005
936.399064
935.3593744
934.2839009
933.176217
932.0402501
930.8799401
929.6991802
928.5018505
927.2917995
926.0726818
924.84813
923.621556
922.3961708
921.1750648
919.9610824
918.7568457
917.5647153
916.3868035
915.225038
914.0810878
912.9564096
911.8524536
910.7701129
909.7102027
908.6734921
907.6605427
906.6715701
905.7069399
904.7665749
903.850485
902.9584243
902.0900429
901.2447219
900.4221565
945.5373608
945.4625941
945.3019456
945.0633977
944.7504358
944.3662102
943.9129073
943.3929004
942.8084226
942.1615353
941.4545021
940.6897392
939.8700424
938.9980382
938.07679
937.1098094
936.1003272
935.0522535
933.9691566
932.8550323
931.7139895
930.5498462
929.3665667
928.1681842
926.9585635
925.7414175
924.5203054
923.2985841
922.079485
920.8659934
919.6608515
918.466633
917.2856144
916.1198224
914.9711963
913.8411958
912.7312007
911.6424142
910.5758261
909.5321786
908.5120228
907.5158609
906.5439496
905.5963773
904.6732381
903.774281
902.8993727
902.0479962
901.2195881
900.4137812
945.3692728
945.2931711
945.1295789
944.886525
944.5679103
944.1767542
943.7156576
943.1869328
942.5929418
941.9360633
941.2187238
940.4435273
939.6132517
938.7308554
937.7998578
936.8234314
935.8054338
934.7494649
933.6597231
932.5400326
931.394509
930.2272305
929.0422816
927.8436249
926.6350913
925.4203929
924.2031198
922.9865811
921.7739986
920.5682889
919.3721568
918.1880358
917.0181212
915.8643531
914.7284813
913.6119693
912.5162401
911.442257
910.3908284
909.3627392
908.3585133
907.3783635
906.4227488
905.4914743
904.5847026
903.7020352
902.8434155
902.008171
901.1958012
900.405856
945.1991564
945.1216445
944.9550391
944.707562
944.3834782
943.9855413
943.5167994
942.9796476
942.3765579
941.7100726
940.9828032
940.1975496
939.3572581
938.465342
937.5249819
936.5399756
935.5140072
934.4511719
933.3553153
932.230775
931.0816737
929.9120144
928.7259537
927.5275431
926.3206074
925.1089369
923.896001
922.6850684
921.4793096
920.2815519
919.0944312
917.9203256
916.7613554
915.6194514
914.4961799
913.3929148
912.3108908
911.2512056
910.2145027
909.2013302
908.2123649
907.2476778
906.3075208
905.3918676
904.5006295
903.633517
902.790332
901.9704081
901.173256
900.3983483
945.0268371
944.9479375
944.7783699
944.5267682
944.1971158
943.7927385
943.3164208
942.7710314
942.1591449
941.4834075
940.7466219
939.9518763
939.102284
938.2011693
937.2521997
936.2592136
935.2260665
934.1568485
933.0558234
931.9271308
930.7749783
929.6035861
928.417153
927.219654
926.0148987
924.8066349
923.5983414
922.393267
921.1945096
920.0048816
918.8269196
917.6629014
916.5148333
915.3845018
914.273496
913.183179
912.1146157
911.0686579
910.0461514
909.0474775
908.0730557
907.1232009
906.1978383
905.2971129
904.4206969
903.5684271
902.7399137
901.9345577
901.1518621
900.3912278
944.8523628
944.7720974
944.5997429
944.3439819
944.0088888
943.5981958
943.1146868
942.5612678
941.9408136
941.2561887
940.5103877
939.7065569
938.8479803
937.9383373
936.9813906
935.9809781
934.9413161
933.8665084
932.7607728
931.6286501
930.4742418
929.301745
928.1154081
926.9192577
925.7171524
924.5127871
923.3095479
922.1106903
920.919195
919.7377673
918.5689241
917.4149017
916.2776594
915.1588516
914.0599166
912.9820885
911.9266251
910.8941182
909.8851944
908.9005075
907.9401379
907.0044729
906.0933397
905.2068511
904.344598
903.5064918
902.6919626
901.9004775
901.1315338
900.3844657
944.6758156
944.5943076
944.4191821
944.1592375
943.8190216
943.4019441
942.9114247
942.3503016
941.7216156
941.0284162
940.2738932
939.461342
938.5943907
937.6767727
936.7122558
935.7051928
934.6595233
933.5797068
932.4701109
931.335049
930.1788303
929.0058745
927.8202952
926.626071
925.4270393
924.2268749
923.0289402
921.8364952
920.6524754
919.4794547
918.3198661
917.1758298
916.0491929
914.9416911
913.8546527
912.7891814
911.7462936
910.7268472
909.7311967
908.7598995
907.8131489
906.8910549
905.9936368
905.120739
904.2720623
903.4474683
902.6462892
901.8680319
901.1121897
900.3780346
932.1832155
931.0459389
929.8886166
928.7156234
927.5311849
926.3392878
925.1438065
923.9482907
922.7560542
921.5702845
920.3937994
919.2291926
918.0788669
916.94484
915.8288492
914.7324623
913.6569983
912.6036354
911.5731561
910.5662673
909.5835188
908.6251477
907.6915428
906.7825236
905.8982944
905.0384455
904.2028297
903.3911237
902.6027117
901.8370997
901.0937515
900.3719083
)
;

boundaryField
{
    front_top
    {
        type            wedge;
    }
    front_middle
    {
        type            wedge;
    }
    front_bottom
    {
        type            wedge;
    }
    back_top
    {
        type            wedge;
    }
    back_middle
    {
        type            wedge;
    }
    back_bottom
    {
        type            wedge;
    }
    axis_top
    {
        type            symmetryPlane;
    }
    axis_middle
    {
        type            symmetryPlane;
    }
    axis_bottom
    {
        type            symmetryPlane;
    }
    wall_top
    {
        type            calculated;
        value           nonuniform 0();
    }
    wall_middle
    {
        type            calculated;
        value           uniform 900.0184441;
    }
    wall_bottom
    {
        type            calculated;
        value           nonuniform 0();
    }
    inlet
    {
        type            calculated;
        value           nonuniform 0();
    }
    outlet
    {
        type            calculated;
        value           nonuniform 0();
    }
    procBoundary4to3
    {
        type            processor;
        value           nonuniform List<scalar> 
51
(
944.4974153
944.4145834
944.2366396
943.9726536
943.6273445
943.204211
942.7066529
942.1380416
941.5013814
940.7999147
940.0370236
939.216334
938.341441
937.4161666
936.4448812
935.4314391
934.3805335
933.2962532
933.2962532
931.8999799
930.7608458
929.6028647
928.4304464
927.2477128
926.0586025
924.8669569
923.676325
922.4900122
921.3111542
920.1424511
918.9864498
917.84539
916.7212272
915.6157873
914.5304611
913.4664297
912.4248162
911.4064852
910.411875
909.4416024
908.4958661
907.5748634
906.6785437
905.8069406
904.9596465
904.136577
903.3372351
902.561056
901.8075664
901.0761445
900.3660617
)
;
    }
    procBoundary4to5
    {
        type            processor;
        value           nonuniform List<scalar> 
51
(
948.157406
948.109954
948.0080382
947.8566765
947.6580144
947.4136105
947.1249557
946.7926166
946.4175001
945.9997184
945.5397651
945.0375203
944.4928656
943.9056404
943.2756288
942.6025606
941.8861842
941.1262576
940.3226543
939.4753095
938.5844392
937.6503045
936.6732275
935.6540078
934.5932818
933.4920599
932.3517389
931.1735911
929.9592086
928.7104985
927.4295749
926.1186135
924.7800854
923.4165713
922.0308334
920.0631196
920.0631196
918.6579832
917.2439231
915.8239645
914.401297
912.9790429
911.560553
910.1486159
908.7461362
907.3558427
905.9803256
904.6216716
903.2817332
901.9618344
900.6628371
)
;
    }
}


// ************************************************************************* //
