/*--------------------------------*- C++ -*----------------------------------*\
  =========                 |
  \\      /  F ield         | OpenFOAM: The Open Source CFD Toolbox
   \\    /   O peration     | Website:  https://openfoam.org
    \\  /    A nd           | Version:  7
     \\/     M anipulation  |
\*---------------------------------------------------------------------------*/
FoamFile
{
    version     2.0;
    format      ascii;
    class       volScalarField;
    location    "0.0012";
    object      T;
}
// * * * * * * * * * * * * * * * * * * * * * * * * * * * * * * * * * * * * * //

dimensions      [0 0 0 1 0 0 0];

internalField   nonuniform List<scalar> 
1167
(
438.1936034
438.2659464
438.421477
438.652728
438.956448
439.3301718
439.77221
440.2815633
440.8571677
441.4987964
442.2063582
442.9796435
443.8191376
444.7252584
445.6984502
446.7392008
447.8479656
449.0251354
450.2707531
451.5848903
452.9674954
454.4179507
455.9355995
457.5194374
459.1683326
460.8803833
462.6538231
464.486477
466.3758272
468.318821
470.3122683
472.3527698
474.4364857
476.5595043
478.7174836
438.3826088
438.4571401
438.617394
438.8557152
439.168778
439.5538859
440.0098464
440.5350721
441.1291686
441.7911832
442.5213276
443.3195759
444.1860756
445.1210131
446.1247674
447.1975902
448.3396659
449.5510899
450.8317746
452.1814192
453.5990405
455.0842464
456.6354514
458.2515808
459.9305945
461.6704734
463.4688644
465.323122
467.2301631
469.1865594
471.1888337
473.2330954
475.3152837
477.4311933
479.5763054
481.7460798
483.9357461
486.140563
488.3555761
490.5761633
492.7975414
495.0149654
497.2239542
499.4200766
501.5994178
503.7582568
505.8933282
508.0018346
510.0818565
512.1320823
438.5751801
438.6519542
438.8170478
439.0626081
439.3849698
439.7819661
440.2519842
440.7935003
441.4060277
442.0890026
442.84193
443.6650542
444.5583874
445.5220128
446.5560454
447.6605297
448.835429
450.0804656
451.3949849
452.7783937
454.229785
455.747477
457.3302897
458.9760494
460.6826055
462.4474221
464.267685
466.1403231
468.0616867
470.0281917
472.0360299
474.0809838
476.1588292
478.2649291
480.3948433
482.5439131
484.7074049
486.8806613
489.0589624
491.2376849
493.4122288
495.5783006
497.7318144
499.8687727
501.9855375
504.0788332
506.1458722
508.1842201
510.1924364
512.1695214
438.7713641
438.850427
439.0204581
439.2732375
439.6052325
440.0143181
440.4984139
441.0566243
441.6877384
442.3915426
443.1676428
444.0156766
444.9357506
445.9278121
446.9917475
448.1273756
449.3341153
450.6114866
451.9587857
453.3746314
454.8576896
456.4062404
458.0182666
459.6912909
461.4228391
463.2098439
465.0490164
466.9369247
468.8697138
470.8434638
472.8539837
474.8968925
476.967808
479.0620647
481.1750799
483.3020356
485.4383913
487.5796247
489.7211745
491.8587023
493.9878385
496.1045978
498.2051334
500.2858535
502.3435683
504.3754098
506.3789943
508.3523189
510.2941983
512.2039085
438.9712008
439.05259
439.2275367
439.4876321
439.8295139
440.2507061
440.7491688
441.3239876
441.9740201
442.6986372
443.4975966
444.3705577
445.3172342
446.3373657
447.4306013
448.5964953
449.8343428
451.1432781
452.5216971
453.9684951
455.481522
457.0589085
458.697846
460.3959499
462.1499633
463.9563444
465.8118186
467.7123898
469.6539318
471.6322983
473.643019
475.6816307
477.7435332
479.8240739
481.9186432
484.02257
486.1313338
488.2404419
490.3456377
492.4427785
494.5277907
496.5970382
498.647013
500.6744958
502.6766144
504.6508592
506.5951911
508.5079724
510.3882854
512.2356475
439.1746911
439.2583264
439.4382189
439.7058867
440.0577563
440.490974
441.004088
441.5954599
442.2644184
443.0099752
443.8316912
444.7292104
445.7020787
446.7498143
447.8718269
449.0673646
450.3351604
451.6740873
453.0826359
454.5585545
456.0999549
457.7039208
459.3679363
461.0887333
462.8626055
464.6861501
466.5554498
468.4661976
470.4140913
472.3947359
474.4034965
476.4358449
478.4870247
480.5524471
482.6274794
484.7075704
486.7883496
488.865511
490.9350015
492.9928462
495.0353033
497.0590289
499.0607949
501.0377608
502.987383
504.9074773
506.7963133
508.6525756
510.4755796
512.2650511
439.3816557
439.4676658
439.6526763
439.9279755
440.2897096
440.7352007
441.2628611
441.8709356
442.5585504
443.3249562
444.1694318
445.0912388
446.0898876
447.1646504
448.3145473
449.5385639
450.8353712
452.2033335
453.6401125
455.1438709
456.7114738
458.3404068
460.0272728
461.7683915
463.5601395
465.3985621
467.2793546
469.1980137
471.150112
473.1309516
475.1358898
477.1603059
479.1993985
481.2486161
483.3033324
485.3591557
487.4118856
489.457375
491.4918058
493.5114134
495.5127972
497.4928786
499.4487215
501.3778057
503.2779017
505.1471435
506.9839077
508.7872913
510.5568124
512.2923773
439.5923503
439.6807488
439.8709043
440.153863
440.5253698
440.9832789
441.5252786
442.150194
442.8563575
443.6432531
444.5099891
445.455727
446.4796196
447.5806925
448.7578249
450.0095879
451.3341589
452.729508
454.1934954
455.722961
457.3153932
458.9671688
460.6747885
462.4343751
464.2418555
466.092941
467.9829945
469.9074697
471.8617665
473.8410441
475.8406036
477.8556617
479.8815423
481.9136897
483.9475952
485.9789946
488.0038273
490.0181766
492.018409
494.0009823
495.9628303
497.9011129
499.8131781
501.6967851
503.5499901
505.3712312
507.1592725
508.9130989
510.6325977
512.3178415
439.8067884
439.8975813
440.0928924
440.3832151
440.7647967
441.2349889
441.7913724
442.4326553
443.157556
443.9646964
444.8533433
445.8224832
446.8710298
447.9977666
449.2011977
450.4793602
451.8305182
453.2521639
454.74138
456.295371
457.9105584
459.583373
461.3099643
463.0859636
464.9069993
466.7686864
468.6661744
470.5947193
472.5495157
474.5256595
476.5184305
478.52298
480.5347244
482.549132
484.5618421
486.5687515
488.5659261
490.5497005
492.5166215
494.4634195
496.3872971
498.2856522
500.1561208
501.9965539
503.8053886
505.58134
507.3233717
509.0308308
510.7034552
512.3416255
440.024976
440.1181626
440.3183976
440.616297
441.007923
441.4901127
442.0609927
442.7184837
443.4615217
444.2887882
445.1990435
446.1910694
447.2635283
448.4149526
449.6435782
450.9473873
452.323857
453.7701755
455.2834318
456.8600164
458.4963309
460.1885262
461.93196
463.7224039
465.5553269
467.4258456
469.3289941
471.2599415
473.2136875
475.1853287
477.1701145
479.1632265
481.1601427
483.1563636
485.1477002
487.1302216
489.1001164
491.0539731
492.9885054
494.9007264
496.7880701
498.6481513
500.4788894
502.2785153
504.0454751
505.7786572
507.4773411
509.1412028
510.7698303
512.3638846
440.2467817
440.342226
440.5475478
440.8530685
441.2545424
441.7487629
442.333757
443.0074905
443.7683821
444.6151684
445.5464246
446.5607084
447.6564393
448.8318589
450.0848765
451.4128982
452.8133501
454.2831801
455.8186891
457.4164137
459.0722323
460.7817113
462.5404245
464.3436924
466.1867133
468.0642654
469.9713745
471.9031339
473.854438
475.8204079
477.7961687
479.7770311
481.7585114
483.7362385
485.7061628
487.6645018
489.6076508
491.5323773
493.4355762
495.3145526
497.1669518
498.990434
500.7833043
502.5440222
504.2713443
505.96422
507.6220205
509.2447339
510.8321085
512.3847525
440.4721568
440.5699736
440.7803963
441.0934862
441.5045316
442.0108405
442.6096515
443.2993124
444.0779164
444.9438022
445.8955391
446.9314393
448.0496828
449.2480865
450.5241613
451.8754356
453.2986648
454.7903357
456.3468489
457.964036
459.6375397
461.3629102
463.1352295
464.9494483
466.8007307
468.6837867
470.593502
472.5247731
474.4724761
476.4317473
478.3976714
480.3656739
482.3313232
484.2903993
486.238995
488.1734745
490.0903907
491.9866933
493.8594864
495.7063453
497.5251036
499.3137702
501.0707049
502.7944443
504.4840957
506.1389418
507.7581471
509.3420686
510.8906264
512.4043456
440.701259
440.8014311
441.0169144
441.3372584
441.7580067
442.2760873
442.8886684
443.5937935
444.3896241
445.2742957
446.2459856
447.3027585
448.4425441
449.6629631
450.9613703
452.3345834
453.7791608
455.2915018
456.8673525
458.502444
460.1923044
461.9316911
463.7158072
465.5396121
467.397768
469.2849132
471.1958882
473.125413
475.0683874
477.0199959
478.9753627
480.9299867
482.8794781
484.8197794
486.747153
488.6580746
490.5493767
492.4181496
494.2616925
496.0777298
497.8642141
499.6194629
501.3421028
503.0308693
504.6847872
506.3034869
507.8863829
509.4337023
510.9456834
512.4227669
440.9340693
441.0365749
441.2569281
441.5845017
442.0149006
442.5443944
443.1706671
443.8909686
444.7035364
445.6063381
446.5973218
447.6743126
448.8349567
450.0765641
451.3959497
452.7898892
454.2547421
455.78612
457.3800034
459.0315794
460.7359133
462.4879828
464.2825874
466.1144255
467.9778853
469.8676857
471.7785887
473.7052676
475.6426712
477.5858658
479.5301101
481.4709696
483.4041549
485.3257564
487.2321914
489.1200339
490.9862662
492.8281973
494.6433573
496.4297226
498.1854907
499.908831
501.5987047
503.254178
504.8742898
506.4587419
508.0073111
509.5200641
510.9975438
512.4401075
441.1705347
441.2752109
441.5003588
441.8352385
442.2749857
442.8158612
443.4552364
444.1906584
445.0195923
445.9400099
446.9496634
448.0461427
449.2267066
450.4882457
451.8277077
453.2413193
454.7248507
456.2742332
457.8845689
459.551085
461.2687189
463.031916
464.8353658
466.6737113
468.5412877
470.4326425
472.3424392
474.265342
476.1963457
478.1304399
480.0630029
481.9897135
483.9064147
485.8093236
487.6949855
489.5601894
491.4021349
493.2181916
495.0060018
496.7637486
498.4898504
500.1829229
501.8415841
503.4652671
505.0533912
506.6053803
508.1214602
509.6015401
511.0464446
512.4564484
441.4103612
441.5173121
441.7473364
442.0894166
442.5381821
443.0904106
443.7426105
444.4924734
445.3374291
446.2750078
447.3026653
448.4177481
449.6173079
450.8981284
452.2565593
453.6884154
455.189733
456.755464
458.3810374
460.0612259
461.7904358
463.5633804
465.3745348
467.2181961
469.0885821
470.9802589
472.8878217
474.8059764
476.7297386
478.6541637
480.5747382
482.4871438
484.3873806
486.2718108
488.1371023
489.9800993
491.7982578
493.5890963
495.3506075
497.0810189
498.7786643
500.4425543
502.0716672
503.6650871
505.2227424
506.7440082
508.2292385
509.6784853
511.0926026
512.4718637
441.6537891
441.7629832
441.9978134
442.3467266
442.804606
443.3676965
444.0327063
444.7966445
445.6570121
446.6111058
447.6561445
448.7891993
450.0070247
451.3059857
452.6821364
454.1314859
455.6489111
457.2300957
458.8694042
460.56176
462.3015054
464.0829161
465.9002882
467.7478835
469.6199568
471.5110045
473.4155003
475.3282038
477.2441329
479.1584419
481.0666209
482.9644635
484.8481334
486.7141504
488.5592938
490.3807254
492.1759214
493.9423476
495.6783447
497.3823683
499.0529394
500.6889074
502.2896782
503.8544158
505.3830042
506.8751914
508.331148
509.7512228
511.1362152
512.4864207
441.9007711
442.0121757
442.2516066
442.6072891
443.0741976
443.6478477
444.325231
445.1030938
445.9784207
446.9484797
448.010257
449.1605261
450.3954988
451.711646
453.1047768
454.5700118
456.1028775
457.6978452
459.3498727
461.0532282
462.8019612
464.5905172
466.4130653
468.2636122
470.1363654
472.0257093
473.9262088
475.8326871
477.7401094
479.6437735
481.5393112
483.4225746
485.2898446
487.1377621
488.963075
490.763267
492.5359283
494.2789134
495.9904038
497.6689682
499.3134766
500.9228743
502.4965017
504.0339736
505.5348991
506.9994537
508.4276293
509.8200516
511.1774347
512.5001811
442.1512522
442.2646865
442.5085929
442.8711278
443.3466507
443.9308781
444.6201901
445.4114316
446.3014035
447.2869061
448.3646885
449.531248
450.7828284
452.1154038
453.5240946
455.0045317
456.5512876
458.1592975
459.8225497
461.5355611
463.2923566
465.0869667
466.9133565
468.7656205
470.6379986
472.5248558
474.4206878
476.3203724
478.2188689
480.1115639
481.9941296
483.8626226
485.7134374
487.5433393
489.3493666
491.1289886
492.8797187
494.5997884
496.2876667
497.9418518
499.5612562
501.1452924
502.6929752
504.2043804
505.6790092
507.117281
508.5190663
509.8852499
511.2164474
512.5132022
442.4048465
442.5204247
442.7689144
443.1381852
443.6220565
444.2166482
444.9176792
445.7218779
446.6258884
447.6262736
448.7195116
449.9018111
451.1691666
452.5168668
453.9405438
455.4348795
456.994704
458.6141908
460.2878556
462.0094186
463.772878
465.5723625
467.4017083
469.2548542
471.1260288
473.0094554
474.8997967
476.7919738
478.6810074
480.562407
482.4319367
484.2857262
486.1202752
487.9323522
489.7192766
491.4786528
493.2082888
494.9061972
496.5711075
498.2018971
499.7972323
501.3567544
502.8798153
504.3662206
505.8158821
507.2290463
508.6058182
509.9470773
511.2534255
512.5255375
442.661818
442.7795085
443.03251
443.4080773
443.9004543
444.5049118
445.2175696
446.0344556
446.9520667
447.9668175
449.0749052
450.2721094
451.5541754
452.9165281
454.3540624
455.8613945
457.4330878
459.0633154
460.7459434
462.4749811
464.2442819
466.0476242
467.8787605
469.7317277
471.600759
473.4801244
475.3644533
477.248679
479.1279189
480.9976883
482.8538926
484.6928059
486.5110967
488.3057524
490.0740485
491.8135992
493.5224782
495.1990879
496.841832
498.4498543
500.022236
501.5582265
503.0577076
504.5202102
505.9460377
507.3352349
508.6882238
510.0057783
511.2885171
512.5372369
442.9220985
443.0418707
443.2991271
443.6810489
444.1817488
444.7958961
445.5196173
446.3488918
447.2797744
448.308358
449.4305568
450.6420674
451.9383802
453.3143845
454.7648281
456.2843237
457.8668801
459.5066388
461.1975258
462.9329224
464.7068283
466.5130411
468.3452192
470.1973012
472.063426
473.9379256
475.8155559
477.6912221
479.5602083
481.4181838
483.2610713
485.0851982
486.8872966
488.6645537
490.4144778
492.1348837
493.8235327
495.4792399
497.1007595
498.6867975
500.2369812
501.7504453
503.2272323
504.666928
506.0699723
507.4362915
508.7666055
510.061585
511.3218622
512.5483476
443.1855693
443.3072412
443.5687328
443.9570521
444.4656084
445.0895581
445.8240837
446.665272
447.6089357
448.6508961
449.7867795
451.0120607
452.3217136
453.7105437
455.1732895
456.7037768
458.2964268
459.9448301
461.6426706
463.3836636
465.1614761
466.9695453
468.8017191
470.6519922
472.5145181
474.3836429
476.2541424
478.1208981
479.9792489
481.8250558
483.6543616
485.4636657
487.2498691
489.0100228
490.7418028
492.4432265
494.1124383
495.7478255
497.3485776
498.9135557
500.4422065
501.9341142
503.3890134
504.8069282
506.1881232
507.5326099
508.8412718
510.114719
511.3535945
512.5589146
462.0823192
463.8277879
465.6084055
467.417662
469.2492155
471.0970305
472.955185
474.8182017
476.6809158
478.5383069
480.3858842
482.2194655
484.0351291
485.8295261
487.5997223
489.343029
491.0571322
492.7399263
494.3899261
496.0057603
497.5863044
499.1309353
500.6387864
502.1099128
503.5437526
504.9407448
506.3009115
507.6245683
508.9125187
510.1653783
511.3838418
512.568981
)
;

boundaryField
{
    front_top
    {
        type            wedge;
    }
    front_middle
    {
        type            wedge;
    }
    front_bottom
    {
        type            wedge;
    }
    back_top
    {
        type            wedge;
    }
    back_middle
    {
        type            wedge;
    }
    back_bottom
    {
        type            wedge;
    }
    axis_top
    {
        type            symmetryPlane;
    }
    axis_middle
    {
        type            symmetryPlane;
    }
    axis_bottom
    {
        type            symmetryPlane;
    }
    wall_top
    {
        type            convectiveRadiativeHeatFlux;
        mode            convectiveRadiative;
        kappaMethod     fluidThermo;
        kappa           none;
        alphaAni        Anialpha;
        h               nonuniform 0();
        Ta              constant 513.15;
        emissivityNozzle 0.95;
        emissivityFilament 0.95;
        dNozzle         2;
        dFilament       1.65;
        refValue        nonuniform 0();
        refGradient     nonuniform 0();
        valueFraction   nonuniform 0();
        value           nonuniform 0();
    }
    wall_middle
    {
        type            fixedValue;
        value           uniform 513.15;
    }
    wall_bottom
    {
        type            fixedValue;
        value           nonuniform 0();
    }
    inlet
    {
        type            fixedValue;
        value           nonuniform 0();
    }
    outlet
    {
        type            zeroGradient;
    }
    procBoundary4to3
    {
        type            processor;
        value           nonuniform List<scalar> 
51
(
443.4519056
443.5756008
443.8414024
444.2359133
444.7522897
445.3855606
446.1309442
446.9837355
447.9398074
448.9946974
450.1437466
451.381935
452.7042861
454.1054713
455.5793121
457.1203847
458.7219561
460.3781707
460.3781707
462.516625
464.2660116
466.0487363
467.8582176
469.6882557
471.5328729
473.3861816
475.2426894
477.0972288
478.9448454
480.7812194
482.6022302
484.4042025
486.1838777
487.938174
489.6646764
491.3612864
493.0259837
494.6571496
496.2538418
497.8148292
499.3395513
500.8274515
502.2783783
503.6920487
505.068902
506.4088613
507.7125293
508.9806301
510.2137495
511.4127269
512.5785878
)
;
    }
    procBoundary4to5
    {
        type            processor;
        value           nonuniform List<scalar> 
51
(
438.007918
438.0782308
438.2292698
438.4536474
438.7482517
439.1108579
439.5393573
440.0330284
440.5906595
441.2122351
441.8971889
442.6458839
443.4586992
444.3360954
445.2786354
446.2869827
447.3617949
448.5037359
449.7133179
450.9909806
452.3367608
453.7506442
455.2325416
456.7816536
458.3974387
460.0787956
461.8240352
463.6316576
465.499668
467.4255769
469.4065577
471.4396669
473.5214754
475.6483498
477.8163351
480.9060416
480.9060416
483.1204889
485.3558493
487.6074801
489.8704196
492.1397509
494.4101294
496.6770477
498.9357555
501.1817289
503.4106154
505.618831
507.8031345
509.9611153
512.0910987
)
;
    }
}


// ************************************************************************* //
