/*--------------------------------*- C++ -*----------------------------------*\
  =========                 |
  \\      /  F ield         | OpenFOAM: The Open Source CFD Toolbox
   \\    /   O peration     | Website:  https://openfoam.org
    \\  /    A nd           | Version:  7
     \\/     M anipulation  |
\*---------------------------------------------------------------------------*/
FoamFile
{
    version     2.0;
    format      ascii;
    class       volScalarField;
    location    "0.0012";
    object      thermo:mu;
}
// * * * * * * * * * * * * * * * * * * * * * * * * * * * * * * * * * * * * * //

dimensions      [1 -1 -1 0 0 0 0];

internalField   nonuniform List<scalar> 
1167
(
279066.7739
277079.1255
272861.0027
266725.7083
258908.4064
249650.1354
239189.6962
227759.3997
215595.8008
202914.1892
189920.1
176808.9601
163748.7865
150891.9723
138371.3055
126298.5211
114764.7648
103840.9428
93580.5169
84016.86278
75166.50099
67033.35697
59607.03795
52866.90033
46783.16297
41321.25037
36440.35112
32097.31373
28247.81604
24847.8887
21854.12765
19224.8058
16920.76274
14905.33445
13144.98898
273908.1455
271904.2755
267652.7473
261471.3888
253600.5708
244291.4065
233776.2679
222306.8786
210110.7799
197423.4254
184448.005
171379.8854
158394.6195
145647.5785
133270.2149
121373.4754
110046.2436
99355.82122
89349.56959
80056.28247
71490.45737
63646.37668
56511.01224
50057.03064
44252.14087
39056.82231
34427.95302
30320.39695
26688.74584
23488.19704
20675.0882
18208.25471
16049.12858
14162.07361
12514.68824
11077.57437
9824.447826
8731.839468
7779.056977
6947.74481
6221.904625
5587.574914
5032.56213
4546.308576
4119.604325
3744.503982
3414.123002
3122.508351
2864.472288
2635.537529
268765.181
266745.97
262463.0007
256238.7203
248325.0637
238964.6124
228405.6238
216903.5342
204693.1584
192006.968
179065.0478
166059.5986
153168.9072
140548.7432
128331.2595
116625.336
105516.4315
95068.49368
85325.57374
76310.04132
68027.91061
60473.0178
53622.78151
47448.37645
41912.16908
36971.8888
32582.20963
28696.47277
25268.68007
22253.33925
19607.07722
17289.42145
15262.65636
13492.48665
11947.54549
10599.77379
9424.15932
8398.493166
7503.247645
6721.276607
6037.621122
5439.201055
4914.655657
4454.170166
4049.227655
3692.456297
3377.468972
3098.759756
2851.509156
2631.572628
263640.1513
261606.7479
257294.8685
251035.5351
243080.3283
233675.7688
223085.9043
211557.6948
199346.0983
186680.3535
173782.1322
160855.278
148075.7541
135599.1668
123556.8726
112055.1259
101178.0973
90983.62298
81508.29385
72771.98878
64774.9651
57503.68896
50932.90874
45028.90967
39750.38673
35052.87823
30889.38549
27212.05564
23974.14183
21130.33742
18637.94482
16457.2198
14551.49544
12887.60638
11435.54939
10168.64431
9063.046033
8097.751964
7254.378939
6516.810994
5871.062618
5304.916908
4807.804548
4370.573728
3985.289113
3645.097918
3344.06478
3077.069308
2839.644035
2627.937477
258535.4892
256489.287
252154.0216
245864.4224
237871.1398
228433.5964
217819.5344
206281.4697
194077.4787
181448.0973
168614.0722
155779.7781
143126.1418
130808.399
118955.9748
107671.8338
97034.31907
87097.15407
77895.15351
69437.85326
61722.66427
54729.64774
48430.70135
42786.46656
37754.16709
33287.28471
29336.53516
25853.96919
22792.65215
20107.59905
17756.91461
15701.73387
13906.64675
12339.65658
10972.0619
9778.395164
8736.096648
7825.368796
7028.840921
6331.389107
5719.898554
5182.929785
4710.612566
4294.407021
3926.925509
3601.783006
3313.450237
3057.152235
2828.728258
2624.587802
253454.5657
251399.8381
247045.2352
240726.3603
232702.1188
223244.3952
212612.7546
201079.5716
188897.3835
176316.4963
163562.1694
150838.5274
138326.9398
126181.8819
114530.4012
103472.2154
93083.05861
83410.29592
74480.06627
66301.33299
58862.38591
52141.72554
46104.23675
40709.36864
35911.86489
31662.24777
27911.21818
24610.47572
21713.1213
19174.82867
16954.5736
15014.5316
13320.58511
11841.93176
10551.18208
9424.075585
8439.217878
7577.901151
6823.764736
6162.617101
5582.132706
5071.595865
4621.778592
4224.684801
3873.413025
3561.999799
3285.281041
3038.792094
2818.647126
2621.489341
248404.9694
246340.7627
241967.4728
235625.1409
227581.796
218109.0783
207474.1815
195955.7822
183813.4868
171295.5254
158633.0275
146034.6787
133679.2446
121719.8292
110281.7332
99459.97251
89323.17674
79915.00386
71258.78508
63353.21079
56186.23613
49728.24786
43942.82338
38786.53403
34210.89147
30165.98872
26602.13646
23470.85074
20725.54205
18322.84819
16222.60233
14388.18001
12786.71952
11388.67248
10167.92517
9101.369108
8168.716079
7352.29689
6636.67711
6008.513402
5456.203862
4969.700993
4540.356862
4160.677217
3824.198156
3525.333589
3259.273146
3021.810166
2809.306021
2618.613872
243383.5167
241311.7718
236923.981
230564.5671
222512.756
213032.3387
202409.6501
190915.5355
178827.1294
166389.603
153836.7536
141377.0748
129190.7234
117428.5061
106210.9191
95629.79199
85749.78701
76608.97494
68221.7077
60586.95836
53682.85096
47479.36796
41935.72908
37005.79588
32640.02572
28787.76071
25399.14967
22425.62083
19821.26966
17543.68679
15553.79648
13816.30353
12299.48139
10975.0737
9818.147471
8806.731824
7921.601299
7146.028815
6465.459735
5867.325321
5340.685468
4876.105305
4465.461008
4101.716472
3778.802841
3491.471586
3235.190764
3006.057281
2800.625982
2615.937861
238393.0421
236315.8309
231917.9924
225554.6567
217496.1122
208020.6793
197419.9274
185969.8245
173942.9961
161600.0759
149170.9536
136864.0962
124858.6366
113302.6458
102313.707
91980.48697
82358.85926
73482.72697
65363.48932
57991.2048
51343.34274
45384.46892
40071.35125
35356.50602
31189.16784
27517.80226
24292.63474
21465.64712
18991.84095
16829.77144
14941.49848
13293.00426
11853.75175
10596.73118
9498.135284
8537.063941
7695.302436
6956.995985
6308.407659
5737.667971
5234.462203
4789.912265
4396.368105
4047.241536
3736.795324
3460.086244
3212.854633
2991.407706
2792.540448
2613.441485
233436.441
231355.9318
226957.6225
220591.9599
212535.5327
203079.95
192508.9767
181115.8516
169170.3345
156932.5339
144638.7482
132496.7138
120683.5986
109343.9344
98590.73171
88505.73095
79143.20547
70530.93964
62673.19196
55557.96658
49157.2451
43432.56512
38339.94846
33829.00306
29848.10432
26346.19055
23273.57676
20582.81755
18229.962
16174.57135
14379.91747
12813.19931
11445.09975
10249.81571
9204.606931
8289.583811
7487.481758
6783.255544
6163.927304
5618.264942
5136.533989
4710.365335
4332.536439
3996.81357
3697.830418
3430.928526
3192.070611
2977.754236
2784.99268
2611.107855
228519.5058
226440.6887
222042.4744
215679.7244
207637.1146
198209.2549
187684.3633
176356.7775
164505.8229
152389.6811
140245.1093
128279.0363
116666.3296
105548.2641
95033.6905
85201.11158
76097.1232
67743.93853
60143.47896
53277.04031
47114.24129
41614.82182
36731.2539
32412.77992
28607.42889
25264.41826
22334.22526
19770.17159
17529.37565
15572.49712
13864.1495
12372.66111
11069.9323
9931.267749
8934.974541
8062.128957
7296.321334
6623.290868
6030.753869
5508.060259
5046.011418
4636.738155
4273.37567
3950.034192
3661.629622
3403.784387
3172.692135
2965.017198
2777.933807
2608.922427
223645.8379
221568.1096
217173.8321
210821.0353
202804.7985
193411.6406
182946.5128
171698.0363
159951.3834
147969.2503
135985.2917
124205.2201
112801.003
101911.4109
91641.04713
82059.82528
73211.90439
65115.01209
57764.24324
51139.07514
45205.59199
39920.41676
35235.38463
31099.20225
27459.25306
24264.87698
21467.3036
19020.95205
16883.96794
15018.16642
13389.42563
11967.2169
10724.61346
9637.971155
8686.591416
7852.459997
7119.982481
6475.618055
5907.711315
5406.151163
4962.233158
4568.480384
4218.430885
3906.529322
3627.930477
3378.468333
3154.592052
2953.104026
2771.321382
2606.872584
218814.5132
216740.1356
212354.6079
206023.5784
198037.7071
188692.6117
178295.6306
167141.1063
155512.4042
143673.5304
131860.0006
120275.3233
109087.8588
98431.24838
88404.30538
79074.941
70480.98041
62634.13363
55527.15303
49135.01655
43420.69377
38340.67763
33844.42938
29879.79044
26395.0193
23339.7469
20665.91222
18329.08645
16288.45887
14507.00008
12951.79228
11593.47838
10406.27245
9367.52668
8457.469717
7658.957322
6957.109281
6339.076821
5793.792688
5311.673244
4884.475697
4505.078873
4167.341332
3865.996822
3596.491829
3354.839357
3137.657999
2941.942832
2765.117887
2604.947159
214028.3992
211959.6188
207590.3717
201286.5822
193338.3824
184054.4984
173733.9343
162684.3093
151186.127
139503.135
127869.8478
116487.3281
105520.642
95099.29065
85318.86504
76239.9459
67895.00691
60293.93198
53422.88638
47255.12752
41751.91856
36866.71308
32548.90762
28746.32526
25407.64834
22482.74461
19924.49186
17689.55418
15738.24612
14034.88612
12547.65205
11248.33333
10112.20452
9117.581855
8245.577413
7479.865926
6806.273331
6212.552676
5688.165361
5223.987987
4812.181824
4446.056365
4119.735692
3828.188019
3567.114157
3332.731567
3121.791964
2931.471626
2759.290316
2603.136304
209290.8569
207232.566
202884.382
196611.1289
188711.933
179495.8713
169267.4704
158329.0487
146971.0791
135453.5611
124008.8835
112835.1269
102094.6159
91913.04777
82377.61199
73546.05509
65447.63621
58084.70346
51442.96167
45491.49222
40189.39858
35489.95141
31341.68828
27692.20864
24490.55067
21687.54834
19237.13236
17097.05196
15228.76588
13597.87876
12173.65604
10928.95957
9840.064903
8886.220036
8049.381348
7313.943813
6666.380495
6095.064835
5589.975527
5142.412598
4744.901947
4391.0238
4075.291159
3792.866466
3539.620852
3312.015976
3106.906453
2921.63517
2753.809294
2601.431274
204609.6556
202561.2741
198235.7439
191999.5596
184160.381
175018.246
164891.7718
154079.2875
142869.5325
131524.9499
120276.2914
109317.9577
98807.34463
88864.11831
79573.07802
70987.45319
63128.79246
55999.30936
49578.70612
43834.7986
38725.98953
34203.2143
30215.06537
26709.86641
23637.19961
20948.60305
18599.10262
16547.5367
14756.56564
13192.95597
11827.08503
10632.93796
9587.726169
8671.569574
7867.22191
7159.809284
6536.375643
5985.835396
5498.584366
5066.369987
4682.12304
4339.664989
4033.731539
3759.800165
3513.86463
3292.578298
3092.932325
2912.383272
2748.648102
2599.8241
199981.8206
197945.4226
193646.9124
187458.4755
179682.2518
170627.0974
160607.3705
149929.9581
138879.1496
127716.1927
116669.2841
105929.5057
95650.16306
85947.10911
76899.96136
68554.35982
60932.64856
54028.33815
47822.13193
42278.14752
37353.20766
32998.48286
29162.50498
25793.76376
22842.37834
20260.94559
18005.74448
16036.721
14317.75005
12816.70683
11505.11411
10357.94551
9353.302427
8472.125769
7697.926441
7016.423407
6415.296557
5884.019882
5413.357412
4995.415618
4623.445838
4291.614131
3994.833089
3728.797436
3489.703693
3274.314286
3079.790694
2903.6707
2743.782556
2598.307552
195409.9902
193387.5453
189122.5107
182986.4891
175279.0337
166319.9905
156417.5559
145880.4073
134996.2379
124021.6249
113181.7195
102664.1648
92619.83146
83156.4207
74348.91291
66242.09826
58849.24402
52165.42065
46165.19695
40812.87842
36064.43136
31869.74223
28177.64011
24937.52804
22100.30537
19619.68518
17452.92771
15561.12369
13909.41653
12466.73188
11205.61932
10102.06458
9135.053219
8286.319884
7540.138593
6882.760514
6302.415784
5788.97536
5333.70548
4929.061206
4568.541791
4246.583636
3958.357015
3699.685588
3466.993319
3257.12931
3067.412744
2895.456074
2739.193827
2596.874999
190896.7253
188892.6763
184665.6705
178583.9374
170955.8599
162096.3586
152320.9883
141933.7743
131221.0824
120440.1075
109812.2386
99520.86222
89709.65472
80483.64841
71915.48231
64040.81861
56873.15041
50401.32897
44600.8733
39432.8876
34852.35556
30809.85663
27254.64294
24136.39823
21406.85216
19020.85469
16936.94398
15117.36791
13528.4706
12140.24717
10926.28807
9863.437333
8931.525888
8113.039297
7392.851331
6757.863758
6196.874088
5700.103495
5259.160718
4866.884223
4517.067384
4204.313652
3924.085644
3672.316346
3445.61548
3240.937237
3055.738786
2887.701332
2734.859556
2595.520309
186450.0853
184463.4285
180274.7727
174252.4063
166711.1892
157957.7785
148315.1214
138085.1457
127551.6454
116969.1679
106555.7568
96490.74757
86912.97024
77925.34897
69590.70329
61944.94161
54995.4379
48730.76392
43121.73867
38130.59101
33711.24467
29813.80021
26388.1603
23384.99747
20756.99622
18460.27882
16454.34441
14702.62358
13172.59524
11835.29531
10665.30983
9640.400312
8741.20103
7950.952941
7255.077718
6641.02394
6098.014361
5616.790526
5189.267079
4808.525395
4468.705969
4164.604951
3891.833237
3646.554
3425.461878
3225.670193
3044.713853
2880.37132
2730.759178
2594.23779
182066.3557
180098.6632
175951.654
169998.3527
162544.3405
153907.0111
144400.4256
134332.3
123983.0185
113602.9317
103406.5345
93570.0092
84226.92906
75472.72145
67369.11266
59946.87033
53210.40661
47145.10122
41721.84787
36900.38829
32634.58943
28875.3927
25573.20413
22679.27472
20147.33905
17934.64503
16001.97068
14313.9423
12839.11008
11549.59238
10420.87497
9431.547048
8562.980813
7799.057196
7125.866689
6531.403183
6005.276845
5538.541215
5123.568719
4753.677069
4423.184519
4127.20071
3861.428512
3622.24813
3406.432339
3211.247291
3034.28688
2873.433312
2726.875056
2593.022115
177747.6521
175800.3609
171700.9492
165817.9684
158456.5574
149940.0056
140578.5803
130676.4517
120514.3271
110339.8485
100363.3456
90754.70353
81642.91529
73120.61775
65244.33829
58040.04793
51510.89431
45639.3039
40394.12752
35735.92111
31617.59332
27990.25646
24805.16331
22014.65223
19573.65602
17440.48534
15576.99399
13949.03744
12526.16285
11281.45949
10191.39164
9235.393205
8395.575094
7656.409714
7004.503678
6428.320031
5918.027349
5464.939564
5061.684304
4701.980763
4380.268958
4091.899129
3832.725978
3599.275832
3388.433665
3197.5955
3024.410105
2866.856614
2723.190602
2591.868263
173496.6662
171573.4668
167523.3906
161712.1005
154452.1405
146056.5646
136844.7725
127114.4651
117143.6416
107176.6022
97419.67375
88037.76027
79156.85447
70863.55639
63209.14826
56219.01835
49890.71729
44206.43378
39133.97363
34632.04386
30654.42074
27153.24161
24079.98134
21387.88297
19033.03331
16974.96079
15176.73197
13605.39375
12231.5376
11029.13377
9975.512425
9050.862976
8237.977208
7522.048769
6890.177687
6331.249356
5835.750695
5395.497369
5003.31094
4653.151423
4339.733296
4058.514474
3805.579449
3577.52284
3371.384296
3184.650613
3015.038544
2860.612234
2719.690102
2590.771467
37934.78799
33583.6891
29741.37563
26360.41117
23393.4975
20794.9456
18522.06533
16535.35746
14799.04903
13281.26809
11953.58324
10791.01298
9771.755254
8876.71003
8089.299724
7395.239369
6782.183884
6239.527336
5758.038093
5329.822957
4948.088279
4606.924869
4301.336947
4026.873978
3779.836051
3556.882191
3355.207611
3172.352183
3006.129696
2854.674409
2716.35861
2589.727175
)
;

boundaryField
{
    front_top
    {
        type            wedge;
    }
    front_middle
    {
        type            wedge;
    }
    front_bottom
    {
        type            wedge;
    }
    back_top
    {
        type            wedge;
    }
    back_middle
    {
        type            wedge;
    }
    back_bottom
    {
        type            wedge;
    }
    axis_top
    {
        type            symmetryPlane;
    }
    axis_middle
    {
        type            symmetryPlane;
    }
    axis_bottom
    {
        type            symmetryPlane;
    }
    wall_top
    {
        type            calculated;
        value           nonuniform 0();
    }
    wall_middle
    {
        type            calculated;
        value           uniform 2530.329233;
    }
    wall_bottom
    {
        type            calculated;
        value           nonuniform 0();
    }
    inlet
    {
        type            calculated;
        value           nonuniform 0();
    }
    outlet
    {
        type            calculated;
        value           nonuniform 0();
    }
    procBoundary4to3
    {
        type            processor;
        value           nonuniform List<scalar> 
51
(
169318.9714
167418.5237
163417.9762
157683.2248
150526.8499
142260.0982
133197.9323
123642.7789
113865.7583
104107.6662
94570.60914
85416.37921
76763.74312
68694.48329
61259.6778
54476.56864
48344.62591
42841.39954
42841.39954
36792.65585
32585.95166
28873.23834
25607.67492
22742.54632
20233.19536
18038.11227
16119.05783
14441.45088
12974.47595
11690.62219
10565.83545
9579.043187
8711.893059
7948.557247
7275.215913
6679.965228
6152.626296
5684.392552
5267.578387
4895.706113
4563.091169
4264.878684
3996.837892
3755.365816
3537.252181
3339.814691
3160.643342
2997.643412
2849.019032
2713.181899
2588.73104
)
;
    }
    procBoundary4to5
    {
        type            processor;
        value           nonuniform List<scalar> 
51
(
284244.4007
282270.86
278084.7765
271997.8015
264238.0219
255035.8767
244635.3483
233255.8073
221131.5905
208468.058
195475.4278
182334.6747
169213.9462
156264.4098
143618.0965
131386.9926
119663.9536
108522.4354
98018.37763
88189.97475
79061.09202
70639.6802
62920.15878
55888.36997
49518.49128
43779.02217
38633.92436
34041.9474
29960.51046
26346.65727
23157.68756
20351.78749
17889.32694
15732.91785
13847.90879
11609.04841
11609.04841
10269.92587
9102.972551
8086.040008
7199.684423
6426.773713
5752.429575
5163.435704
4648.404524
4197.438434
3801.972651
3454.522677
3148.638422
2878.710239
2639.886324
)
;
    }
}


// ************************************************************************* //
