/*--------------------------------*- C++ -*----------------------------------*\
  =========                 |
  \\      /  F ield         | OpenFOAM: The Open Source CFD Toolbox
   \\    /   O peration     | Website:  https://openfoam.org
    \\  /    A nd           | Version:  7
     \\/     M anipulation  |
\*---------------------------------------------------------------------------*/
FoamFile
{
    version     2.0;
    format      ascii;
    class       volScalarField;
    location    "0.0012";
    object      thermo:alpha;
}
// * * * * * * * * * * * * * * * * * * * * * * * * * * * * * * * * * * * * * //

dimensions      [1 -1 -1 0 0 0 0];

internalField   nonuniform List<scalar> 
1167
(
0.0001208555458
0.0001208500094
0.0001208381085
0.0001208204186
0.0001207971939
0.0001207669232
0.000120728972
0.0001206840257
0.0001206292327
0.0001205715063
0.000120510429
0.0001204370243
0.0001203574258
0.0001202716161
0.0001201744056
0.0001200718668
0.0001199607505
0.0001198470994
0.00011972065
0.000119597393
0.000119460291
0.0001193205635
0.0001191648721
0.0001189992896
0.0001188154868
0.0001186250934
0.0001184143411
0.0001181820702
0.0001179384813
0.0001176777971
0.0001174022106
0.0001171035615
0.0001167875706
0.0001164552828
0.0001161064596
0.0001208410824
0.0001208353801
0.0001208231212
0.0001208048956
0.0001207807856
0.0001207477132
0.0001207085796
0.0001206598881
0.0001206033559
0.00012054648
0.0001204805206
0.0001204047814
0.0001203226635
0.0001202341727
0.0001201301097
0.0001200281774
0.0001199116004
0.0001197938787
0.0001196680021
0.0001195412231
0.0001193995448
0.0001192521692
0.0001190931881
0.0001189176249
0.0001187306609
0.0001185325299
0.0001183135349
0.0001180741245
0.0001178278003
0.0001175583967
0.0001172738121
0.0001169742092
0.000116651471
0.0001163152366
0.0001159623579
0.0001155944244
0.0001152117036
0.0001148145407
0.0001143965642
0.0001139656901
0.0001135287219
0.0001130768628
0.00011260602
0.0001121356528
0.000111652933
0.000111161598
0.0001106721641
0.0001101734855
0.000109663232
0.0001091603771
0.0001208263501
0.0001208204778
0.0001208078522
0.0001207890784
0.0001207622172
0.0001207281347
0.0001206868426
0.0001206352911
0.0001205794489
0.0001205209994
0.000120450091
0.0001203720284
0.0001202874105
0.000120192746
0.0001200891521
0.0001199801764
0.0001198649441
0.0001197391703
0.0001196151907
0.0001194797522
0.0001193398901
0.0001191841531
0.0001190204011
0.0001188368988
0.0001186470645
0.0001184391349
0.00011821032
0.0001179688092
0.0001177132064
0.0001174427263
0.0001171498642
0.0001168426743
0.0001165209055
0.0001161845332
0.0001158267153
0.0001154574723
0.0001150725642
0.0001146747988
0.0001142640727
0.0001138354227
0.0001134056494
0.0001129575699
0.0001124976887
0.0001120361502
0.0001115675577
0.0001110880199
0.0001106143659
0.0001101299074
0.0001096360747
0.0001091510316
0.0001208113456
0.0001208052999
0.0001207923005
0.000120771813
0.0001207433051
0.000120708196
0.000120663378
0.0001206102564
0.000120555333
0.0001204928429
0.0001204191905
0.0001203388042
0.0001202516983
0.0001201505707
0.0001200480399
0.000119931802
0.0001198163138
0.0001196886696
0.0001195623659
0.0001194205155
0.0001192754177
0.0001191166579
0.0001189436401
0.0001187572813
0.0001185623187
0.0001183470274
0.0001181094763
0.0001178662642
0.0001176019778
0.0001173243829
0.000117030333
0.0001167162466
0.0001163884482
0.000116047046
0.000115692532
0.0001153260799
0.0001149408949
0.0001145428728
0.0001141342304
0.000113713239
0.0001132874854
0.0001128450545
0.0001123967931
0.0001119437132
0.0001114866782
0.0001110199787
0.0001105589598
0.0001100885193
0.0001096110866
0.0001091423002
0.000120796066
0.0001207898442
0.0001207757383
0.0001207534017
0.000120724054
0.0001206869644
0.0001206395099
0.0001205864737
0.0001205308357
0.0001204636897
0.0001203879022
0.0001203051932
0.0001202140381
0.0001201097959
0.0001200040132
0.0001198874261
0.0001197646008
0.0001196387877
0.0001195061781
0.0001193650341
0.0001192114198
0.0001190498487
0.0001188678887
0.0001186789198
0.0001184748797
0.0001182505343
0.0001180111302
0.0001177613275
0.0001174941463
0.0001172089134
0.0001169105975
0.0001165947838
0.0001162670479
0.0001159219656
0.0001155647902
0.0001151960408
0.0001148162007
0.0001144182633
0.0001140111131
0.0001135984182
0.0001131767259
0.0001127398506
0.000112302658
0.0001118576263
0.0001114100915
0.0001109568092
0.0001105075574
0.0001100502038
0.0001095879861
0.0001091342415
0.0001207802776
0.0001207730937
0.0001207576446
0.0001207346647
0.0001207044692
0.0001206640863
0.0001206152542
0.0001205632315
0.0001205049148
0.0001204341467
0.0001203562362
0.0001202712421
0.0001201740285
0.0001200708652
0.0001199582779
0.0001198431278
0.0001197146038
0.0001195890352
0.000119448444
0.0001193061254
0.0001191480313
0.000118978704
0.0001187932658
0.0001186019544
0.0001183892684
0.0001181562965
0.0001179153565
0.000117657508
0.0001173872876
0.0001170974282
0.0001167926828
0.0001164755319
0.0001161462117
0.0001157995993
0.0001154431365
0.0001150725344
0.0001146922317
0.0001143004989
0.0001138950127
0.0001134903671
0.0001130726953
0.0001126412162
0.0001122145602
0.0001117772019
0.0001113386589
0.0001108979795
0.0001104597527
0.0001100146157
0.000109566556
0.0001091267761
0.0001207625018
0.0001207551161
0.0001207392322
0.0001207156045
0.0001206832499
0.0001206408392
0.0001205917084
0.0001205396556
0.0001204769869
0.0001204042712
0.0001203242398
0.000120236989
0.0001201337328
0.0001200315941
0.0001199139652
0.0001197951737
0.0001196676648
0.0001195389657
0.0001193957074
0.0001192460519
0.0001190854056
0.0001189077227
0.0001187199088
0.0001185207538
0.0001183017354
0.0001180643973
0.0001178210174
0.0001175568216
0.0001172794807
0.0001169898892
0.0001166792403
0.0001163570467
0.0001160238295
0.0001156798929
0.0001153258458
0.0001149551609
0.0001145745212
0.0001141862721
0.0001137854124
0.0001133852816
0.0001129715793
0.0001125486466
0.0001121292987
0.0001117019542
0.0001112719083
0.0001108430546
0.0001104151751
0.0001099814672
0.0001095466163
0.0001091198384
0.000120744411
0.0001207368225
0.0001207205019
0.0001206961879
0.0001206608118
0.0001206172338
0.0001205692392
0.0001205157636
0.0001204487219
0.0001203740948
0.0001202919922
0.0001201996374
0.0001200963661
0.0001199884522
0.0001198722452
0.0001197464928
0.0001196208923
0.0001194847841
0.000119343618
0.0001191866661
0.000119022064
0.0001188378878
0.000118647933
0.0001184407024
0.0001182136556
0.0001179749122
0.0001177240454
0.0001174593095
0.0001171753476
0.000116879881
0.0001165701939
0.0001162497535
0.0001159125988
0.0001155656408
0.0001152095659
0.0001148436037
0.0001144628684
0.0001140756612
0.0001136818339
0.0001132847882
0.0001128753546
0.0001124615925
0.0001120484756
0.0001116313998
0.0001112094162
0.0001107917161
0.0001103735139
0.0001099505162
0.0001095280157
0.0001091133737
0.0001207260043
0.0001207182126
0.0001207014548
0.000120674346
0.0001206380226
0.0001205940954
0.0001205464638
0.0001204889392
0.0001204201472
0.0001203436339
0.0001202594954
0.0001201615154
0.0001200594281
0.0001199452289
0.0001198300609
0.0001197010689
0.0001195743802
0.0001194319628
0.0001192873559
0.0001191280129
0.0001189556527
0.0001187692891
0.0001185759003
0.0001183624535
0.0001181277977
0.0001178879117
0.0001176299841
0.0001173608203
0.0001170748104
0.0001167737526
0.0001164620082
0.0001161400089
0.0001158026482
0.000115456577
0.0001150987996
0.0001147337113
0.0001143569287
0.0001139709036
0.0001135839083
0.000113189926
0.0001127846506
0.0001123796357
0.0001119724601
0.0001115651225
0.0001111507784
0.0001107435943
0.000110334538
0.0001099215568
0.0001095106263
0.0001091073357
0.0001207072816
0.000120699287
0.000120680518
0.0001206521562
0.0001206148893
0.0001205722498
0.0001205233954
0.0001204618061
0.0001203913223
0.0001203129361
0.0001202263299
0.0001201236102
0.0001200213386
0.000119904513
0.0001197843176
0.0001196571579
0.0001195265515
0.0001193835569
0.0001192317355
0.0001190702015
0.0001188903437
0.0001187019783
0.0001185010859
0.0001182807628
0.0001180441873
0.0001178008209
0.0001175388116
0.0001172634031
0.0001169772218
0.0001166715867
0.0001163555325
0.0001160297307
0.0001156950995
0.0001153523859
0.0001149932399
0.000114627681
0.0001142563248
0.0001138715875
0.0001134912194
0.000113100274
0.000112699058
0.0001123024156
0.0001119009488
0.0001115016417
0.0001110956747
0.0001106984147
0.000110297976
0.0001098944118
0.0001094943385
0.0001091016851
0.0001206873381
0.000120678249
0.0001206587005
0.0001206296227
0.0001205924208
0.0001205501103
0.00012049833
0.0001204343824
0.0001203622356
0.0001202820358
0.0001201902081
0.000120088712
0.0001199806004
0.0001198652799
0.0001197387147
0.0001196135117
0.0001194761543
0.0001193344053
0.0001191768538
0.0001190107878
0.0001188261875
0.0001186360541
0.0001184279621
0.0001182005051
0.0001179628343
0.0001177128512
0.0001174505307
0.0001171692977
0.0001168778037
0.0001165733174
0.0001162589292
0.0001159296336
0.0001155922893
0.0001152477013
0.0001148926956
0.0001145268613
0.0001141566238
0.0001137774297
0.0001134008547
0.0001130139861
0.0001126181838
0.0001122295372
0.0001118335327
0.000111440578
0.0001110438505
0.0001106559375
0.0001102636269
0.0001098689531
0.0001094790573
0.0001090963877
0.0001206658777
0.0001206565657
0.0001206365381
0.00012060675
0.0001205710153
0.0001205276857
0.000120472136
0.000120406703
0.0001203329082
0.0001202509365
0.000120153924
0.000120053729
0.0001199398503
0.0001198252111
0.0001196968643
0.0001195701727
0.000119427616
0.0001192823308
0.0001191227404
0.0001189496882
0.0001187632619
0.0001185695293
0.0001183565401
0.0001181223211
0.0001178837881
0.0001176275604
0.0001173609987
0.0001170784257
0.0001167819934
0.0001164762029
0.0001161616277
0.0001158317346
0.0001154939497
0.0001151477369
0.000114796022
0.0001144308861
0.0001140614241
0.00011368807
0.000113313826
0.0001129301881
0.000112541773
0.0001121592362
0.0001117699102
0.0001113830038
0.0001109950507
0.0001106159518
0.0001102313146
0.0001098450213
0.0001094646999
0.0001090914141
0.0001206440695
0.0001206345364
0.000120614034
0.0001205853373
0.0001205493192
0.0001205038066
0.000120445656
0.000120378783
0.0001203033879
0.0001202185034
0.0001201184243
0.00012001727
0.0001199019158
0.0001197823138
0.0001196558464
0.0001195254468
0.0001193827175
0.0001192309077
0.0001190694507
0.0001188896624
0.0001187015582
0.0001185011183
0.0001182816153
0.000118046213
0.0001178046916
0.0001175448724
0.0001172727794
0.0001169906978
0.0001166896911
0.0001163799084
0.0001160619928
0.000115734667
0.0001153999159
0.0001150523141
0.0001147000123
0.0001143395691
0.0001139709674
0.000113603258
0.0001132312999
0.0001128507966
0.000112469459
0.0001120914295
0.0001117098532
0.0001113286657
0.00011094903
0.0001105769158
0.0001102008808
0.0001098224941
0.0001094511928
0.0001090867381
0.0001206219156
0.0001206121637
0.0001205922165
0.0001205641695
0.0001205273384
0.0001204783307
0.0001204189036
0.0001203506194
0.0001202736719
0.0001201839799
0.0001200852562
0.0001199787477
0.0001198649885
0.0001197395734
0.0001196151003
0.000119478569
0.0001193373264
0.0001191801921
0.0001190148518
0.0001188307146
0.0001186411419
0.000118434262
0.0001182083955
0.0001179721449
0.0001177247492
0.0001174647751
0.0001171875133
0.0001169009409
0.0001166008109
0.0001162913707
0.0001159698904
0.0001156416834
0.000115307642
0.0001149611747
0.0001146084334
0.0001142525752
0.0001138849183
0.0001135227009
0.0001131530306
0.0001127755876
0.0001124009789
0.0001120272699
0.0001116530908
0.0001112773581
0.0001109055866
0.0001105399975
0.0001101721861
0.0001098012655
0.0001094384707
0.0001090823365
0.0001205996157
0.0001205906507
0.0001205713726
0.0001205427101
0.0001205039112
0.0001204525647
0.0001203919182
0.0001203222294
0.0001202437664
0.0001201493034
0.0001200520098
0.0001199402171
0.0001198274224
0.0001197002349
0.0001195746434
0.0001194329765
0.0001192890527
0.000119130178
0.0001189585516
0.0001187728821
0.0001185808636
0.0001183689413
0.0001181370405
0.0001179001345
0.000117647172
0.000117384569
0.0001171050713
0.0001168140949
0.0001165147595
0.0001162073837
0.0001158830274
0.0001155525875
0.0001152169953
0.0001148741313
0.0001145211112
0.0001141659869
0.0001138030574
0.0001134455033
0.0001130786996
0.000112704251
0.0001123361324
0.0001119665207
0.0001115993821
0.0001112288725
0.0001108645379
0.0001105051352
0.0001101451043
0.0001097812402
0.0001094264756
0.0001090781887
0.0001205790778
0.0001205699212
0.0001205502324
0.000120520964
0.0001204789205
0.0001204265162
0.0001203646779
0.0001202936504
0.000120211938
0.0001201156838
0.0001200172797
0.0001199042499
0.0001197870332
0.0001196617781
0.0001195334831
0.0001193911946
0.000119241347
0.0001190809026
0.0001189031937
0.0001187161331
0.0001185181029
0.0001183013165
0.0001180674952
0.0001178294504
0.0001175718711
0.0001173043497
0.000117025391
0.0001167303273
0.0001164274128
0.0001161173804
0.0001157957646
0.0001154672121
0.0001151302505
0.0001147898199
0.0001144377425
0.0001140831688
0.0001137251267
0.0001133693312
0.0001130062727
0.0001126365229
0.0001122746229
0.0001119089975
0.0001115485195
0.0001111829882
0.0001108257331
0.0001104721838
0.0001101188223
0.0001097623305
0.0001094151539
0.000109074276
0.0001205582387
0.0001205488933
0.0001205288002
0.0001204970984
0.0001204536328
0.0001204002184
0.0001203371909
0.0001202648606
0.0001201787126
0.0001200839553
0.0001199806309
0.0001198692934
0.0001197467576
0.0001196235333
0.0001194896604
0.0001193498149
0.0001191942573
0.0001190315864
0.0001188487769
0.0001186604922
0.0001184566674
0.0001182341835
0.0001179997308
0.0001177564366
0.0001174988155
0.0001172266601
0.0001169458992
0.0001166494713
0.0001163441068
0.0001160305113
0.0001157111759
0.0001153853434
0.0001150472051
0.0001147062457
0.0001143581783
0.0001140041985
0.000113650867
0.0001132968206
0.0001129361755
0.0001125722207
0.0001122162323
0.0001118544349
0.0001114990739
0.0001111395244
0.0001107890193
0.0001104410077
0.0001100937313
0.0001097444567
0.0001094044572
0.0001090705812
0.0001205371028
0.0001205275715
0.0001205061315
0.0001204723603
0.0001204280542
0.0001203736593
0.0001203094851
0.0001202358677
0.0001201453126
0.0001200521215
0.0001199439348
0.0001198342678
0.0001197089399
0.0001195855163
0.0001194461661
0.000119304949
0.0001191477319
0.0001189793819
0.0001187952765
0.000118605897
0.0001183965504
0.0001181686398
0.0001179336868
0.0001176853987
0.0001174278692
0.0001171513733
0.0001168666734
0.0001165714182
0.000116267576
0.0001159513576
0.0001156299419
0.0001153043165
0.0001149676412
0.0001146262576
0.0001142821267
0.0001139288335
0.0001135801148
0.0001132277675
0.0001128694608
0.0001125110903
0.0001121593013
0.0001118026327
0.0001114515056
0.0001110983141
0.0001107542296
0.0001104114815
0.0001100699799
0.0001097275449
0.0001093943481
0.0001090670887
0.0001205156631
0.0001205048893
0.0001204817295
0.0001204473204
0.000120402214
0.000120346838
0.0001202815605
0.000120204243
0.0001201131915
0.000120018914
0.0001199092447
0.0001197959301
0.0001196725937
0.0001195476992
0.0001194065476
0.0001192603484
0.0001191018051
0.0001189279137
0.0001187426788
0.0001185487577
0.0001183363568
0.000118104581
0.0001178692964
0.0001176162997
0.0001173544796
0.0001170784136
0.0001167900187
0.0001164944435
0.0001161924821
0.000115875115
0.0001155518292
0.0001152248963
0.0001148913864
0.0001145497184
0.0001142075851
0.0001138568191
0.0001135125823
0.0001131619633
0.0001128059358
0.0001124529078
0.0001121043383
0.0001117534027
0.00011140633
0.0001110592133
0.0001107212295
0.0001103834889
0.0001100474732
0.0001097115267
0.0001093847807
0.0001090637839
0.0001204915797
0.0001204806063
0.0001204570199
0.0001204219845
0.0001203761039
0.0001203197679
0.0001202534081
0.0001201719707
0.0001200825601
0.0001199837272
0.0001198758501
0.0001197576288
0.0001196363603
0.0001195066755
0.0001193676444
0.0001192162029
0.0001190564182
0.0001188772097
0.0001186909354
0.0001184917737
0.0001182742399
0.0001180419914
0.0001178041484
0.0001175490055
0.0001172830065
0.0001170076286
0.0001167157968
0.0001164172256
0.0001161127505
0.0001157978859
0.0001154766845
0.0001151485796
0.0001148181897
0.0001144763453
0.0001141346048
0.0001137880005
0.0001134475375
0.0001130991528
0.0001127453886
0.0001123974827
0.0001120520109
0.0001117066116
0.0001113633808
0.0001110220865
0.0001106898927
0.0001103569406
0.0001100261223
0.000109696338
0.0001093757127
0.0001090606531
0.0001204671844
0.0001204560145
0.0001204320088
0.0001203963895
0.0001203497206
0.0001202924728
0.000120224403
0.0001201394912
0.0001200517831
0.0001199484354
0.0001198424186
0.0001197205227
0.0001196002713
0.0001194655358
0.0001193271249
0.0001191724769
0.0001190089267
0.0001188271804
0.0001186400276
0.000118435824
0.0001182133422
0.0001179807496
0.0001177384044
0.0001174834556
0.0001172135277
0.000116935871
0.000116643861
0.000116343405
0.0001160356945
0.0001157230267
0.0001154043034
0.0001150751952
0.0001147446037
0.0001144059539
0.0001140646459
0.0001137221094
0.0001133830096
0.0001130386907
0.0001126875797
0.0001123446524
0.0001120021323
0.0001116620436
0.0001113224985
0.0001109867683
0.0001106600992
0.0001103317207
0.0001100058434
0.0001096819184
0.0001093671078
0.0001090576839
0.000120442484
0.0001204311208
0.0001204067206
0.0001203705124
0.0001203230733
0.0001202649314
0.000120192995
0.0001201087077
0.0001200196537
0.0001199145479
0.000119806341
0.0001196858002
0.0001195642771
0.0001194261467
0.000119284949
0.0001191291444
0.0001189605247
0.0001187778283
0.0001185894314
0.0001183808257
0.0001181536277
0.0001179208157
0.0001176741626
0.0001174190625
0.0001171458585
0.0001168648564
0.0001165740679
0.0001162751172
0.0001159649826
0.0001156507531
0.0001153334769
0.0001150044975
0.0001146735459
0.0001143383486
0.0001139975473
0.0001136589343
0.0001133212054
0.0001129787568
0.0001126323099
0.0001122941854
0.000111954542
0.0001116195338
0.0001112835484
0.0001109531248
0.0001106317346
0.000110307723
0.0001099865568
0.000109668211
0.0001093589315
0.000109054864
0.0001204174902
0.0001204059511
0.0001203811585
0.0001203443581
0.0001202961937
0.000120237148
0.000120161349
0.0001200788433
0.0001199855245
0.0001198823067
0.0001197695163
0.0001196510924
0.0001195267723
0.0001193891274
0.0001192430339
0.0001190861935
0.0001189126254
0.0001187290776
0.0001185358739
0.0001183245504
0.0001180949706
0.0001178620674
0.0001176113327
0.0001173524295
0.0001170799241
0.0001167957596
0.0001165052917
0.0001162088548
0.0001158966753
0.000115580861
0.0001152624774
0.0001149363448
0.0001146050968
0.0001142732869
0.0001139330611
0.0001135983302
0.0001132619191
0.0001129213188
0.0001125794297
0.0001122459031
0.0001119090745
0.0001115789253
0.0001112463858
0.000110921028
0.0001106043534
0.0001102848535
0.0001099681864
0.0001096551609
0.000109351151
0.0001090521822
0.0001184830103
0.0001182671444
0.0001180373455
0.0001178019491
0.0001175497808
0.000117287252
0.0001170155534
0.0001167284338
0.0001164354052
0.0001161373649
0.0001158282569
0.0001155131472
0.0001151937753
0.000114870496
0.0001145390814
0.0001142088358
0.0001138709655
0.0001135400386
0.000113204998
0.0001128661785
0.0001125287197
0.0001121996316
0.0001118655343
0.0001115400665
0.0001112108485
0.0001108903545
0.0001105775283
0.0001102630221
0.0001099506589
0.0001096427195
0.0001093437349
0.0001090496275
)
;

boundaryField
{
    front_top
    {
        type            wedge;
    }
    front_middle
    {
        type            wedge;
    }
    front_bottom
    {
        type            wedge;
    }
    back_top
    {
        type            wedge;
    }
    back_middle
    {
        type            wedge;
    }
    back_bottom
    {
        type            wedge;
    }
    axis_top
    {
        type            symmetryPlane;
    }
    axis_middle
    {
        type            symmetryPlane;
    }
    axis_bottom
    {
        type            symmetryPlane;
    }
    wall_top
    {
        type            calculated;
        value           nonuniform 0();
    }
    wall_middle
    {
        type            calculated;
        value           uniform 0.0001089022317;
    }
    wall_bottom
    {
        type            calculated;
        value           nonuniform 0();
    }
    inlet
    {
        type            calculated;
        value           nonuniform 0();
    }
    outlet
    {
        type            calculated;
        value           nonuniform 0();
    }
    procBoundary4to3
    {
        type            processor;
        value           nonuniform List<scalar> 
51
(
0.000120392234
0.0001203805075
0.000120355316
0.0001203179434
0.000120269058
0.0001202069331
0.0001201294681
0.0001200487957
0.0001199512339
0.0001198499622
0.0001197326333
0.0001196164139
0.0001194873803
0.0001193522438
0.0001192013928
0.000119043559
0.0001188652025
0.000118680896
0.000118680896
0.0001184308211
0.0001182105361
0.0001179806063
0.0001177412346
0.0001174894293
0.0001172234603
0.0001169504491
0.0001166627074
0.0001163672714
0.0001160672541
0.0001157602491
0.0001154474678
0.0001151272176
0.0001148064397
0.0001144752476
0.0001141453746
0.0001138110961
0.0001134838604
0.0001131502029
0.0001128131629
0.000112479988
0.0001121535165
0.0001118237581
0.0001115016733
0.000111176798
0.0001108609835
0.0001105518578
0.0001102421422
0.0001099339045
0.0001096308409
0.0001093366532
0.0001090471895
)
;
    }
    procBoundary4to5
    {
        type            processor;
        value           nonuniform List<scalar> 
51
(
0.0001208711061
0.0001208650569
0.0001208528162
0.0001208356473
0.0001208131131
0.0001207853904
0.0001207489606
0.0001207065907
0.0001206545966
0.0001205960441
0.0001205374093
0.0001204686968
0.0001203915899
0.0001203084564
0.0001202180521
0.0001201145531
0.0001200111479
0.0001198961561
0.0001197771089
0.0001196530694
0.0001195252225
0.0001193853813
0.0001192369556
0.0001190782219
0.0001189013656
0.0001187141793
0.0001185140626
0.0001182924911
0.0001180513623
0.000117800858
0.000117528148
0.000117237099
0.0001169294548
0.0001165999324
0.0001162558188
0.0001157387843
0.0001157387843
0.000115358594
0.0001149557562
0.0001145376179
0.0001141047961
0.0001136579775
0.0001132008546
0.0001127227642
0.000112241177
0.0001117453393
0.0001112414243
0.0001107350091
0.0001102206373
0.0001096928895
0.0001091704154
)
;
    }
}


// ************************************************************************* //
