/*--------------------------------*- C++ -*----------------------------------*\
  =========                 |
  \\      /  F ield         | OpenFOAM: The Open Source CFD Toolbox
   \\    /   O peration     | Website:  https://openfoam.org
    \\  /    A nd           | Version:  7
     \\/     M anipulation  |
\*---------------------------------------------------------------------------*/
FoamFile
{
    version     2.0;
    format      ascii;
    class       volVectorField;
    location    "0.0012";
    object      U;
}
// * * * * * * * * * * * * * * * * * * * * * * * * * * * * * * * * * * * * * //

dimensions      [0 1 -1 0 0 0 0];

internalField   nonuniform List<vector> 
1167
(
(-6.287794107e-05 -3.95385904e-19 -0.004350759024)
(-0.0001623873626 -6.798284311e-19 -0.004347418709)
(-0.0002554308285 -7.082788084e-19 -0.004340171817)
(-0.0003512860545 -1.17289286e-18 -0.004329313632)
(-0.0004443764107 -1.879547872e-18 -0.004315227881)
(-0.0005342348288 -2.482453721e-18 -0.004298168264)
(-0.000620776615 -3.511467454e-18 -0.004278340232)
(-0.0007038116728 -3.84478958e-18 -0.00425595362)
(-0.00078320924 -3.748431912e-18 -0.00423120768)
(-0.0008588881933 -3.807478791e-18 -0.004204291121)
(-0.000930800078 -3.923325478e-18 -0.004175378927)
(-0.0009989230052 -3.472915339e-18 -0.004144633254)
(-0.001063257677 -3.442360808e-18 -0.004112202029)
(-0.001123823339 -3.417084733e-18 -0.004078217692)
(-0.001180653489 -3.332423542e-18 -0.004042796588)
(-0.001233792538 -3.093778513e-18 -0.004006038806)
(-0.001283292737 -2.865811212e-18 -0.003968027866)
(-0.001329211416 -2.790204275e-18 -0.003928830663)
(-0.001371608347 -2.869657241e-18 -0.003888497636)
(-0.001410543623 -2.66744908e-18 -0.003847063228)
(-0.001446076107 -2.621042529e-18 -0.003804546207)
(-0.001478261475 -2.529483389e-18 -0.003760949907)
(-0.001507151245 -2.428016236e-18 -0.00371626309)
(-0.001532791281 -2.331231826e-18 -0.003670459608)
(-0.00155522119 -2.322439083e-18 -0.003623499053)
(-0.001574472923 -2.421793841e-18 -0.003575325742)
(-0.001590569416 -2.6241757e-18 -0.003525868147)
(-0.001603523496 -2.600335412e-18 -0.003475037503)
(-0.001613335954 -2.503668922e-18 -0.003422725203)
(-0.001619992866 -2.35151171e-18 -0.00336879915)
(-0.001623462087 -2.341999673e-18 -0.003313098877)
(-0.001623688768 -2.281412361e-18 -0.003255428382)
(-0.001620588605 -2.199100731e-18 -0.003195545784)
(-0.001614038418 -2.194326109e-18 -0.003133148784)
(-0.001603862543 -2.192646468e-18 -0.003067853497)
(-6.496877456e-05 -5.815525427e-19 -0.004518550327)
(-0.0001678356629 -1.154483579e-18 -0.004514924406)
(-0.0002640074507 -1.189598597e-18 -0.004507034986)
(-0.0003630476147 -1.572473409e-18 -0.004495234677)
(-0.0004592434983 -1.810341748e-18 -0.004479931991)
(-0.0005520840012 -3.157693293e-18 -0.004461406057)
(-0.0006414821952 -3.580228761e-18 -0.004439887424)
(-0.0007272416004 -3.923501686e-18 -0.004415608772)
(-0.0008092254121 -3.585244046e-18 -0.004388792476)
(-0.0008873481547 -3.571118473e-18 -0.004359648022)
(-0.0009615580675 -3.655506134e-18 -0.004328371575)
(-0.001031831375 -3.450562784e-18 -0.004295143378)
(-0.001098167355 -3.156662776e-18 -0.004260128032)
(-0.001160584005 -3.196037974e-18 -0.00422347295)
(-0.001219114086 -3.268588499e-18 -0.004185307656)
(-0.001273801582 -3.149431032e-18 -0.00414574343)
(-0.001324698448 -2.913864008e-18 -0.004104873221)
(-0.00137186182 -3.069511105e-18 -0.004062771623)
(-0.001415351432 -2.926559514e-18 -0.004019495165)
(-0.001455227561 -2.744225809e-18 -0.003975082816)
(-0.001491548921 -2.602780582e-18 -0.003929556682)
(-0.001524371581 -2.528206456e-18 -0.003882922674)
(-0.001553747324 -2.505326667e-18 -0.00383517062)
(-0.001579722704 -2.500340117e-18 -0.003786275343)
(-0.001602338059 -2.60302664e-18 -0.00373619613)
(-0.001621626019 -2.698322147e-18 -0.003684876646)
(-0.001637610606 -2.658587932e-18 -0.003632244224)
(-0.00165030561 -2.589176177e-18 -0.003578208091)
(-0.001659712612 -2.408894239e-18 -0.003522656836)
(-0.001665818031 -2.390441503e-18 -0.003465454513)
(-0.001668589535 -2.143899396e-18 -0.003406435418)
(-0.001667971057 -2.024408618e-18 -0.003345396258)
(-0.001663875454 -2.007459783e-18 -0.003282085046)
(-0.001656174486 -1.888504824e-18 -0.003216185267)
(-0.001644683938 -1.910964389e-18 -0.003147292839)
(-0.001629142347 -1.80398447e-18 -0.00307488285)
(-0.001609179756 -1.859085792e-18 -0.002998260575)
(-0.001584272355 -1.822076691e-18 -0.00291649032)
(-0.001553678793 -1.713442461e-18 -0.002828294057)
(-0.001516354995 -1.564189614e-18 -0.002731914323)
(-0.001470851295 -1.421598916e-18 -0.002624945748)
(-0.001415206116 -1.544203979e-18 -0.002504155724)
(-0.001346860047 -1.701161908e-18 -0.002365325076)
(-0.001262610292 -1.861824682e-18 -0.002203134692)
(-0.001158610503 -1.4777174e-18 -0.002011100019)
(-0.00103041016 -1.033828067e-18 -0.001781531524)
(-0.0008730276599 -9.930153231e-19 -0.001505495668)
(-0.0006809651188 -8.647798804e-19 -0.001172809283)
(-0.0004479125873 -6.288308552e-19 -0.000772204176)
(-0.0001660104575 -3.028734284e-19 -0.0002917469488)
(-6.701555908e-05 -7.319369009e-19 -0.004694297185)
(-0.0001731738507 -1.850643914e-18 -0.004690373807)
(-0.0002724145531 -3.149635545e-18 -0.004681818915)
(-0.0003745800977 -2.146286712e-18 -0.004669041824)
(-0.0004738292424 -2.648947125e-18 -0.004652476278)
(-0.000569607521 -3.459734177e-18 -0.004632428488)
(-0.0006618263245 -3.770300339e-18 -0.004609154097)
(-0.00075028299 -3.425199107e-18 -0.004582908611)
(-0.0008348346878 -3.596078527e-18 -0.004553938501)
(-0.0009153918437 -3.755201695e-18 -0.004522474226)
(-0.0009918990281 -3.441515307e-18 -0.004488732114)
(-0.001064329542 -3.18725957e-18 -0.004452911906)
(-0.001132680538 -3.123781835e-18 -0.004415194764)
(-0.001196968004 -3.025768359e-18 -0.00437574289)
(-0.001257222992 -2.876669862e-18 -0.004334698954)
(-0.001313487929 -3.116053539e-18 -0.004292185478)
(-0.001365813476 -3.157336219e-18 -0.004248304957)
(-0.001414255555 -3.059915983e-18 -0.004203139661)
(-0.001458872722 -2.502751881e-18 -0.004156752397)
(-0.001499724327 -2.459183139e-18 -0.004109187158)
(-0.001536868548 -2.48008017e-18 -0.004060469514)
(-0.001570360897 -2.454694617e-18 -0.004010608078)
(-0.001600252982 -2.340506622e-18 -0.003959594705)
(-0.001626591659 -2.492039534e-18 -0.003907405225)
(-0.001649417438 -2.636455204e-18 -0.003853999375)
(-0.001668763735 -2.771888815e-18 -0.003799320839)
(-0.001684655426 -2.818945063e-18 -0.00374329615)
(-0.001697107181 -2.831669346e-18 -0.003685833003)
(-0.001706121197 -2.688913657e-18 -0.003626817554)
(-0.001711684233 -2.426165721e-18 -0.003566110466)
(-0.001713763823 -2.406313806e-18 -0.003503540984)
(-0.001712302588 -2.160390924e-18 -0.003438898442)
(-0.001707210443 -1.972246853e-18 -0.003371920351)
(-0.001698353682 -1.92104735e-18 -0.003302275274)
(-0.001685539148 -1.876164593e-18 -0.003229538056)
(-0.00166849153 -1.761287469e-18 -0.003153153746)
(-0.001646820192 -1.642168496e-18 -0.003072385304)
(-0.001619971938 -1.649937678e-18 -0.002986238371)
(-0.001587165808 -1.498357324e-18 -0.002893356432)
(-0.001547309276 -1.51963821e-18 -0.002791884232)
(-0.001498902157 -1.285996657e-18 -0.002679308466)
(-0.001439944897 -1.282581288e-18 -0.002552300314)
(-0.001367874165 -1.440127224e-18 -0.00240659088)
(-0.001279541318 -1.455134704e-18 -0.00223689952)
(-0.001171232261 -1.383740049e-18 -0.00203690879)
(-0.001038719612 -1.219671443e-18 -0.001799259981)
(-0.0008773408515 -1.026716889e-18 -0.001515544045)
(-0.0006820112466 -8.235504581e-19 -0.001176323534)
(-0.0004469273687 -5.638572101e-19 -0.0007713175707)
(-0.0001648819411 -2.633693884e-19 -0.0002897993891)
(-6.902610939e-05 -9.800422954e-19 -0.004878125452)
(-0.0001784219591 -2.272143309e-18 -0.004873894439)
(-0.000280683638 -2.538658112e-18 -0.004864655097)
(-0.0003859265982 -1.827658537e-18 -0.004850872105)
(-0.0004881886043 -1.505535821e-18 -0.004833005317)
(-0.0005868724439 -3.21632427e-18 -0.004811389261)
(-0.0006818872923 -4.728192056e-18 -0.004786303395)
(-0.0007730253595 -4.225863243e-18 -0.004758027419)
(-0.0008601376932 -3.644457004e-18 -0.004726830449)
(-0.0009431299558 -3.626942563e-18 -0.00469296558)
(-0.001021943257 -3.346598887e-18 -0.004656668491)
(-0.00109654717 -3.161272342e-18 -0.004618157366)
(-0.00116693542 -3.17593065e-18 -0.004577630465)
(-0.001233121232 -3.03148809e-18 -0.00453526496)
(-0.001295132978 -2.753735719e-18 -0.004491216426)
(-0.001353010588 -2.582402937e-18 -0.004445618482)
(-0.001406802191 -3.027389545e-18 -0.004398582919)
(-0.001456561265 -2.974377312e-18 -0.004350199922)
(-0.001502344562 -2.615520452e-18 -0.0043005388)
(-0.001544209596 -2.49418309e-18 -0.004249648525)
(-0.001582213181 -2.660424195e-18 -0.004197559095)
(-0.001616409715 -2.324292725e-18 -0.004144281932)
(-0.001646850406 -2.340998251e-18 -0.004089811557)
(-0.001673581603 -2.400348561e-18 -0.004034125261)
(-0.001696644091 -2.5127639e-18 -0.003977184144)
(-0.001716071878 -2.676112085e-18 -0.003918932304)
(-0.001731890407 -2.79122306e-18 -0.003859296024)
(-0.001744115113 -2.926370099e-18 -0.003798182168)
(-0.001752748872 -2.812982138e-18 -0.003735475013)
(-0.001757778849 -2.69022574e-18 -0.003671032092)
(-0.001759172287 -2.486999523e-18 -0.003604677745)
(-0.001756870346 -2.481494687e-18 -0.003536193977)
(-0.001750779854 -2.254910239e-18 -0.003465307586)
(-0.001740761388 -2.11007009e-18 -0.003391671574)
(-0.001726612501 -2.003865053e-18 -0.003314838652)
(-0.001708043525 -1.951845159e-18 -0.003234222655)
(-0.001684642842 -1.872167103e-18 -0.003149043058)
(-0.001655828062 -1.897077891e-18 -0.003058246109)
(-0.001620780171 -1.753387874e-18 -0.002960397889)
(-0.001578361964 -1.716808021e-18 -0.002853550042)
(-0.001527029629 -1.684663175e-18 -0.002735091813)
(-0.001464755651 -1.34995093e-18 -0.002601615636)
(-0.001388984069 -1.143441149e-18 -0.002448825364)
(-0.001296628597 -1.213974743e-18 -0.002271500326)
(-0.00118410706 -9.778378968e-19 -0.002063502185)
(-0.001047401944 -1.148650365e-18 -0.001817796613)
(-0.0008821411372 -1.041988538e-18 -0.001526466064)
(-0.0006836076808 -9.417693187e-19 -0.00118075134)
(-0.0004464425021 -5.599176894e-19 -0.0007712506116)
(-0.0001640075672 -1.273443113e-19 -0.000288293912)
(-7.101041374e-05 -4.908123668e-19 -0.005070190386)
(-0.0001836057053 5.464321382e-19 -0.005065643308)
(-0.0002888549332 -1.088567976e-18 -0.005055704376)
(-0.0003971423592 -1.375833663e-18 -0.005040892144)
(-0.0005023919492 -2.439957738e-18 -0.005021693916)
(-0.0006039631766 -2.924722245e-18 -0.004998471599)
(-0.0007017630688 -4.004959647e-18 -0.004971528248)
(-0.0007955793027 -3.527878325e-18 -0.004941168412)
(-0.0008852569824 -3.400812165e-18 -0.004907682929)
(-0.0009706965251 -3.460736071e-18 -0.004871346663)
(-0.001051834602 -3.136967628e-18 -0.004832415612)
(-0.00112863682 -3.164383302e-18 -0.004791125519)
(-0.001201092833 -3.183577238e-18 -0.004747690989)
(-0.001269211836 -3.231975496e-18 -0.004702303833)
(-0.001333018392 -3.004994425e-18 -0.00465513241)
(-0.001392548807 -2.70555723e-18 -0.004606321367)
(-0.001447847806 -2.613070597e-18 -0.004555991826)
(-0.001498965865 -2.577867059e-18 -0.004504241863)
(-0.001545956641 -2.599380083e-18 -0.004451147373)
(-0.001588875215 -2.476741023e-18 -0.004396762962)
(-0.001627776304 -2.351873355e-18 -0.004341122949)
(-0.001662712982 -2.116724466e-18 -0.004284242825)
(-0.001693735201 -2.17072352e-18 -0.00422611973)
(-0.001720888838 -2.414955359e-18 -0.004166733699)
(-0.001744214863 -2.385788096e-18 -0.004106047523)
(-0.001763747325 -2.450803025e-18 -0.004044006394)
(-0.001779512292 -2.764442752e-18 -0.003980537273)
(-0.001791526015 -2.854248383e-18 -0.003915546708)
(-0.001799792016 -2.751626894e-18 -0.003848917669)
(-0.001804297806 -2.705428118e-18 -0.003780504877)
(-0.001805010176 -2.600009344e-18 -0.003710127889)
(-0.001801868653 -2.657787189e-18 -0.003637561367)
(-0.001794776701 -2.498187999e-18 -0.003562521157)
(-0.001783588967 -2.362037332e-18 -0.003484644322)
(-0.001768093434 -2.240373557e-18 -0.003403460674)
(-0.001747985805 -2.168970918e-18 -0.003318351783)
(-0.001722833344 -2.148213343e-18 -0.003228492568)
(-0.001692024852 -1.951410581e-18 -0.003132769703)
(-0.00165470493 -1.689296442e-18 -0.003029673647)
(-0.001609695599 -1.687395558e-18 -0.00291716842)
(-0.00155541613 -1.780524149e-18 -0.002792556671)
(-0.001489819987 -1.736934156e-18 -0.002652368309)
(-0.001410367349 -1.631116828e-18 -0.00249229864)
(-0.001314039028 -1.309891074e-18 -0.00230720254)
(-0.001197381637 -1.101617998e-18 -0.002091126593)
(-0.001056573561 -9.392926325e-19 -0.001837350355)
(-0.0008875065805 -7.689039461e-19 -0.001538414831)
(-0.0006857919709 -5.938201768e-19 -0.00118617831)
(-0.0004464620263 -4.019453247e-19 -0.0007720251688)
(-0.000163377645 -2.074112386e-19 -0.0002872165555)
(-7.298053194e-05 3.175452414e-18 -0.005270684588)
(-0.0001887560235 4.850124859e-18 -0.005265814447)
(-0.0002969769063 2.077175116e-18 -0.005255164585)
(-0.0004082943241 -2.712786262e-19 -0.00523930602)
(-0.0005165238256 -1.698205239e-18 -0.005218753276)
(-0.0006209802837 -2.174801353e-18 -0.005193894491)
(-0.0007215696419 -2.711641343e-18 -0.005165057362)
(-0.0008180750633 -3.682791568e-18 -0.005132569384)
(-0.0009103354879 -3.952548734e-18 -0.005096744094)
(-0.0009982461897 -2.945912189e-18 -0.005057876191)
(-0.001081738467 -3.164625416e-18 -0.005016241259)
(-0.001160773114 -2.681648e-18 -0.004972093031)
(-0.001235335009 -3.017138097e-18 -0.004925661564)
(-0.001305428471 -3.384790847e-18 -0.004877152663)
(-0.001371073325 -3.702544241e-18 -0.004826747159)
(-0.001432301388 -3.300734002e-18 -0.004774600469)
(-0.001489152979 -2.938672285e-18 -0.004720842953)
(-0.001541674457 -2.782221873e-18 -0.004665580798)
(-0.001589916085 -2.738154982e-18 -0.004608896608)
(-0.001633929727 -2.579918287e-18 -0.004550850879)
(-0.001673767623 -2.311590263e-18 -0.004491483124)
(-0.001709480782 -2.231587037e-18 -0.004430812978)
(-0.00174111775 -2.18804441e-18 -0.004368841498)
(-0.001768723988 -2.308239297e-18 -0.004305551891)
(-0.001792339905 -2.228119712e-18 -0.004240909327)
(-0.001811999722 -2.213296005e-18 -0.004174861158)
(-0.001827730288 -2.442513648e-18 -0.004107335714)
(-0.001839548491 -2.49141778e-18 -0.004038239795)
(-0.001847458383 -2.37072265e-18 -0.003967455508)
(-0.001851447707 -2.460757886e-18 -0.003894835194)
(-0.001851482673 -2.539592172e-18 -0.003820193892)
(-0.001847501059 -2.489297511e-18 -0.00374329892)
(-0.001839402695 -2.456020309e-18 -0.003663854887)
(-0.001827035974 -2.434626214e-18 -0.003581482457)
(-0.001810179004 -2.515003666e-18 -0.003495687926)
(-0.001788512726 -2.408590441e-18 -0.003405819935)
(-0.001761583415 -2.192877994e-18 -0.003311008324)
(-0.001728751776 -2.026540383e-18 -0.003210080459)
(-0.001689127962 -1.892146539e-18 -0.003101453476)
(-0.001641497069 -1.890990035e-18 -0.002983009689)
(-0.001584247532 -2.029510273e-18 -0.002851975649)
(-0.00151532123 -2.169736716e-18 -0.002704833098)
(-0.00143220099 -2.287489899e-18 -0.002537284011)
(-0.001331937049 -2.133559165e-18 -0.002344269882)
(-0.001211199876 -1.622913347e-18 -0.002120023598)
(-0.001066349527 -1.156841449e-18 -0.001858125284)
(-0.0008935172308 -7.155357604e-19 -0.001551542112)
(-0.0006886074645 -2.041656526e-19 -0.001192694718)
(-0.0004469978342 9.488734169e-20 -0.0007736727575)
(-0.0001629877021 9.562628519e-20 -0.0002865616196)
(-7.495025417e-05 2.149657056e-18 -0.005479845423)
(-0.0001939087133 4.875300476e-18 -0.005474647083)
(-0.000305106252 4.552593262e-18 -0.00546327906)
(-0.0004194603979 1.888264793e-18 -0.005446362377)
(-0.0005306813896 -2.16790149e-19 -0.005424437882)
(-0.0006380393183 -1.589962681e-18 -0.00539791992)
(-0.0007414395653 -2.484246424e-18 -0.005367160808)
(-0.000840660854 -3.243952529e-18 -0.005332509109)
(-0.0009355354714 -3.660763008e-18 -0.005294300676)
(-0.001025953144 -3.09893801e-18 -0.005252849968)
(-0.00111183991 -2.662679119e-18 -0.005208450494)
(-0.001193150641 -2.825675383e-18 -0.005161372719)
(-0.001269864479 -3.26144367e-18 -0.005111862056)
(-0.001341980257 -3.279135664e-18 -0.005060137754)
(-0.001409512157 -3.715705779e-18 -0.005006392496)
(-0.001472486541 -3.562681943e-18 -0.004950792353)
(-0.001530938735 -3.438631436e-18 -0.004893476832)
(-0.0015849106 -3.57720507e-18 -0.004834560189)
(-0.001634447957 -3.177671157e-18 -0.004774132174)
(-0.001679599223 -2.777595358e-18 -0.004712259579)
(-0.001720413564 -2.680606436e-18 -0.004648987371)
(-0.001756939598 -2.724157416e-18 -0.004584340376)
(-0.001789224607 -2.60438136e-18 -0.004518324194)
(-0.001817312825 -2.524156955e-18 -0.004450925791)
(-0.001841244242 -2.456662159e-18 -0.004382113917)
(-0.001861053467 -2.394464862e-18 -0.004311838844)
(-0.001876767804 -2.459511868e-18 -0.004240030789)
(-0.00188840464 -2.5626331e-18 -0.004166597527)
(-0.001895968534 -2.364421593e-18 -0.004091420893)
(-0.001899447304 -2.265712862e-18 -0.004014351222)
(-0.001898806442 -2.048233296e-18 -0.003935199348)
(-0.001893981861 -1.961014551e-18 -0.0038537253)
(-0.001884869538 -2.015350509e-18 -0.003769622274)
(-0.001871311379 -2.27406908e-18 -0.003682494098)
(-0.001853075319 -2.159693992e-18 -0.003591822995)
(-0.001829827366 -2.015129466e-18 -0.003496924135)
(-0.001801093016 -1.944273576e-18 -0.003396882123)
(-0.001766205826 -1.839962208e-18 -0.003290465857)
(-0.001724243655 -1.765078094e-18 -0.003176022049)
(-0.001673958498 -1.645745203e-18 -0.003051357473)
(-0.001613713445 -1.514407188e-18 -0.002913632464)
(-0.00154144487 -1.693396534e-18 -0.002759293053)
(-0.001454662707 -1.828165299e-18 -0.002584059792)
(-0.001350486809 -1.895409962e-18 -0.002382967838)
(-0.001225705237 -1.953395068e-18 -0.002150434229)
(-0.00107684553 -1.520453753e-18 -0.001880324352)
(-0.0009002557061 -1.169012204e-18 -0.001566000315)
(-0.0006921023418 -9.364128302e-19 -0.001200394983)
(-0.0004480677577 -9.41829461e-20 -0.0007762321162)
(-0.0001628370466 -5.54783993e-20 -0.000286329274)
(-7.693547782e-05 -2.248624611e-18 -0.005697964384)
(-0.0001991047943 3.34036688e-19 -0.005692434449)
(-0.0003133072006 3.280450554e-18 -0.0056803443)
(-0.0004307278047 2.187427241e-18 -0.005662361638)
(-0.0005449733628 -1.323901036e-19 -0.005639052842)
(-0.0006552695205 -3.515586876e-19 -0.005610859602)
(-0.0007615204974 -1.808190253e-18 -0.00557815635)
(-0.0008635010062 -2.295300308e-18 -0.005541313032)
(-0.0009610365787 -2.736133929e-18 -0.005500684809)
(-0.00105401048 -3.067231064e-18 -0.005456606213)
(-0.00114234297 -2.712509289e-18 -0.005409387826)
(-0.001225982713 -3.089312026e-18 -0.005359315538)
(-0.001304902513 -3.725535516e-18 -0.005306649127)
(-0.001379094781 -3.530059682e-18 -0.00525162068)
(-0.001448567499 -3.583519725e-18 -0.00519443433)
(-0.001513341106 -3.690395686e-18 -0.00513526647)
(-0.001573445207 -3.825767129e-18 -0.005074265711)
(-0.001628916274 -3.447968169e-18 -0.005011554455)
(-0.001679795688 -3.239570374e-18 -0.00494722976)
(-0.00172612774 -3.351018568e-18 -0.004881365174)
(-0.001767958261 -3.202501061e-18 -0.004814011947)
(-0.001805333608 -3.202462607e-18 -0.004745200659)
(-0.001838299056 -2.838660263e-18 -0.004674942118)
(-0.001866897784 -2.75951155e-18 -0.004603228142)
(-0.001891169502 -2.724502577e-18 -0.004530031885)
(-0.001911148858 -2.767615728e-18 -0.004455307053)
(-0.001926863397 -2.553602155e-18 -0.004378986585)
(-0.001938330977 -2.36615383e-18 -0.004300980074)
(-0.001945556679 -2.36309982e-18 -0.004221169694)
(-0.001948528308 -2.303402937e-18 -0.004139404164)
(-0.001947210541 -2.249247934e-18 -0.004055490303)
(-0.001941537169 -1.946748427e-18 -0.003969180911)
(-0.001931400129 -1.977789294e-18 -0.003880157713)
(-0.001916634633 -2.119334193e-18 -0.003788007402)
(-0.001896998265 -2.347459502e-18 -0.003692187726)
(-0.001872142046 -2.254608635e-18 -0.003591980034)
(-0.001841571003 -1.874896111e-18 -0.003486423831)
(-0.001804592565 -1.517151837e-18 -0.003374230777)
(-0.001760254453 -1.226444496e-18 -0.003253680416)
(-0.001707279155 -1.040841892e-18 -0.003122510171)
(-0.001644009209 -1.158629331e-18 -0.002977823251)
(-0.001568380276 -1.206846601e-18 -0.002816040496)
(-0.001477932157 -1.409777635e-18 -0.002632909978)
(-0.001369852938 -1.406956918e-18 -0.002423564222)
(-0.001241041117 -1.447108706e-18 -0.002182599651)
(-0.001088177965 -1.149992674e-18 -0.001904150789)
(-0.0009078071238 -7.553227541e-19 -0.001581944048)
(-0.0006963287818 -6.059279275e-19 -0.001209378212)
(-0.0004496942719 -4.253103698e-19 -0.0007797484222)
(-0.0001629278804 -3.433922207e-19 -0.000286524418)
(-7.895374954e-05 -3.581736967e-18 -0.005925395567)
(-0.0002043894888 -2.237768e-19 -0.005919531504)
(-0.0003216503021 3.864067607e-18 -0.005906717088)
(-0.0004421917447 2.657072292e-18 -0.005887662966)
(-0.0005595188899 1.422031531e-18 -0.005862961854)
(-0.0006728122582 5.935182618e-19 -0.005833081583)
(-0.0007819741278 -4.839295338e-19 -0.005798416606)
(-0.0008867748939 -1.891702628e-18 -0.005759358172)
(-0.0009870337929 -2.000715052e-18 -0.005716279583)
(-0.001082627403 -3.121371608e-18 -0.005669532688)
(-0.001173469026 -3.056298995e-18 -0.005619444844)
(-0.001259500869 -3.147033882e-18 -0.005566316855)
(-0.001340688921 -3.279032731e-18 -0.005510421706)
(-0.001417018731 -3.735415378e-18 -0.005452003559)
(-0.001488491683 -4.107131713e-18 -0.005391277441)
(-0.001555121389 -4.127802261e-18 -0.005328429395)
(-0.001616931332 -3.612634515e-18 -0.005263617314)
(-0.001673952602 -3.27999926e-18 -0.00519697181)
(-0.001726221483 -3.369738542e-18 -0.005128597784)
(-0.001773777995 -3.487977679e-18 -0.005058575769)
(-0.001816664697 -3.382583207e-18 -0.004986964055)
(-0.001854925014 -3.238639287e-18 -0.004913799505)
(-0.001888602565 -2.823841133e-18 -0.004839099183)
(-0.001917739386 -2.667687809e-18 -0.004762860422)
(-0.001942374479 -2.696560718e-18 -0.004685061425)
(-0.001962542512 -2.887972561e-18 -0.004605660484)
(-0.00197827139 -2.910419932e-18 -0.00452459403)
(-0.001989579445 -2.584144829e-18 -0.004441774056)
(-0.001996472114 -2.379025708e-18 -0.004357083622)
(-0.001998937078 -2.417604483e-18 -0.004270370312)
(-0.001996938081 -2.187057652e-18 -0.004181437179)
(-0.00199040657 -2.12947782e-18 -0.004090029841)
(-0.001979230242 -2.095531133e-18 -0.003995818505)
(-0.00196323742 -2.081899203e-18 -0.00389837255)
(-0.001942175239 -2.10190521e-18 -0.003797125036)
(-0.0019156798 -2.105620268e-18 -0.003691323372)
(-0.001883236088 -1.918388006e-18 -0.003579962392)
(-0.00184412654 -1.472258251e-18 -0.003461698117)
(-0.00179737089 -1.414296553e-18 -0.003334746429)
(-0.001741665402 -1.272226384e-18 -0.003196781367)
(-0.001675336067 -1.40122348e-18 -0.003044857111)
(-0.001596321402 -1.210310286e-18 -0.002875377947)
(-0.001502192379 -1.080500981e-18 -0.002684125681)
(-0.001390202582 -8.661235924e-19 -0.00246633125)
(-0.001257353138 -9.232727877e-19 -0.002216763563)
(-0.001100465375 -7.042075327e-19 -0.001929809078)
(-0.0009162593107 -5.798465123e-19 -0.001599529787)
(-0.0007013430046 -2.80217946e-19 -0.001219747879)
(-0.0004519040745 2.310754167e-19 -0.0007842726116)
(-0.0001632648657 9.763995052e-22 -0.0002871560087)
(-8.102380122e-05 4.754173793e-18 -0.006162562896)
(-0.0002098112638 4.476995197e-18 -0.006156362654)
(-0.0003302108562 7.676798123e-18 -0.006142822432)
(-0.0004539549679 3.843796121e-18 -0.006122693317)
(-0.0005744470254 3.362889978e-18 -0.006096594614)
(-0.0006908199069 1.040316864e-18 -0.006065017408)
(-0.0008029743218 -3.855649763e-20 -0.006028376345)
(-0.0009106762582 -1.275005364e-18 -0.005987080948)
(-0.001013737695 -1.815656584e-18 -0.005941523403)
(-0.001112028833 -3.016601613e-18 -0.005892070929)
(-0.001205456054 -3.450443196e-18 -0.005839065783)
(-0.001293954224 -3.430765994e-18 -0.005782822517)
(-0.001377481981 -3.659168693e-18 -0.005723626589)
(-0.00145601761 -3.736461945e-18 -0.005661733629)
(-0.001529555384 -3.931029676e-18 -0.005597369056)
(-0.001598102272 -3.737200984e-18 -0.00553072844)
(-0.001661675475 -3.337695468e-18 -0.005461978623)
(-0.0017203 -3.552644499e-18 -0.005391258558)
(-0.001774007078 -3.816652038e-18 -0.005318681131)
(-0.001822832458 -3.616157408e-18 -0.005244334708)
(-0.001866814931 -3.359899602e-18 -0.005168284843)
(-0.001905995517 -3.377385687e-18 -0.005090575755)
(-0.001940415741 -3.247264482e-18 -0.005011231109)
(-0.001970116274 -3.172349905e-18 -0.00493025487)
(-0.001995135724 -3.202849726e-18 -0.004847631183)
(-0.002015508797 -3.350145113e-18 -0.004763323636)
(-0.002031263666 -3.193669811e-18 -0.00467727298)
(-0.002042419101 -2.953899444e-18 -0.00458939419)
(-0.002048980747 -2.768530442e-18 -0.004499571681)
(-0.002050935997 -2.660897043e-18 -0.004407652372)
(-0.002048247544 -2.328849884e-18 -0.004313435898)
(-0.002040844371 -2.318791779e-18 -0.004216660858)
(-0.002028609784 -2.19024969e-18 -0.004116985871)
(-0.00201136502 -2.136305601e-18 -0.004013962886)
(-0.001988846687 -2.162419465e-18 -0.003907000198)
(-0.001960676114 -2.274413698e-18 -0.003795311394)
(-0.001926318748 -2.156927755e-18 -0.003677847321)
(-0.001885033203 -2.001422985e-18 -0.003553210204)
(-0.001835813287 -1.998802318e-18 -0.003419555863)
(-0.001777331975 -1.733088637e-18 -0.003274500562)
(-0.001707901959 -1.573338985e-18 -0.003115056524)
(-0.001625467114 -1.221391386e-18 -0.002937618356)
(-0.001527629798 -1.025254804e-18 -0.002738005847)
(-0.001411705359 -1.27179825e-18 -0.002511546838)
(-0.00127478898 -1.669209588e-18 -0.002253173622)
(-0.001113828865 -1.347045814e-18 -0.00195750725)
(-0.0009257031925 -1.182458167e-18 -0.001618917722)
(-0.0007072045235 -1.201008636e-18 -0.001231611233)
(-0.0004547272739 -6.204955296e-19 -0.0007898601854)
(-0.0001638546342 -2.329196494e-19 -0.0002882361714)
(-8.316548456e-05 2.634270007e-18 -0.006409968217)
(-0.0002154212169 1.489276471e-18 -0.006403429616)
(-0.0003390691474 4.417548603e-18 -0.006389162627)
(-0.0004661276527 2.799015851e-18 -0.006367956197)
(-0.0005898951944 2.220599306e-18 -0.00634045433)
(-0.000709455159 1.724466158e-18 -0.006307170299)
(-0.0008247065003 -1.01800175e-20 -0.00626853881)
(-0.0009354110822 -6.464976556e-19 -0.006224985461)
(-0.001041373182 -1.338105354e-18 -0.006176919062)
(-0.001142455807 -2.139004067e-18 -0.006124722525)
(-0.001238558353 -2.844017496e-18 -0.006068751241)
(-0.001329608235 -3.198171907e-18 -0.006009332177)
(-0.001415556554 -3.64741766e-18 -0.005946762306)
(-0.001496374163 -3.626681291e-18 -0.00588130803)
(-0.001572048153 -3.587900608e-18 -0.005813204687)
(-0.00164257842 -3.298071211e-18 -0.005742657007)
(-0.001707975546 -3.536276133e-18 -0.005669840599)
(-0.001768258903 -3.734366507e-18 -0.005594902976)
(-0.001823454447 -3.742713835e-18 -0.005517965307)
(-0.001873593475 -3.579080331e-18 -0.005439124164)
(-0.001918711488 -3.574851964e-18 -0.005358453141)
(-0.001958846647 -3.386911908e-18 -0.005276004237)
(-0.001994038435 -3.310638714e-18 -0.005191808714)
(-0.00202432659 -3.487960272e-18 -0.00510587801)
(-0.002049749342 -3.532714165e-18 -0.005018202983)
(-0.002070341235 -3.615971861e-18 -0.004928752994)
(-0.002086130582 -3.506997448e-18 -0.004837473929)
(-0.002097136613 -3.310166536e-18 -0.004744284558)
(-0.002103365181 -3.207705028e-18 -0.004649071226)
(-0.002104803365 -3.182786152e-18 -0.004551680543)
(-0.00210141264 -3.193020731e-18 -0.004451908983)
(-0.002093119387 -2.904807927e-18 -0.004349488348)
(-0.002079802398 -2.931228514e-18 -0.004244065721)
(-0.002061275716 -2.701663492e-18 -0.004135175608)
(-0.002037265394 -2.585225023e-18 -0.004022201538)
(-0.002007378175 -2.546180088e-18 -0.0039043236)
(-0.001971060544 -2.46649529e-18 -0.00378044956)
(-0.00192754845 -2.245948225e-18 -0.003649129803)
(-0.001875811659 -2.066337777e-18 -0.003508463671)
(-0.001814502379 -1.753642501e-18 -0.003356014775)
(-0.001741922514 -1.561010417e-18 -0.003188759216)
(-0.001656022635 -1.254262722e-18 -0.003003087073)
(-0.0015544355 -1.354463388e-18 -0.00279485829)
(-0.001434533967 -1.240538803e-18 -0.002559494603)
(-0.001293498822 -1.152873448e-18 -0.002292081791)
(-0.001128391926 -1.22404922e-18 -0.001987457121)
(-0.0009362323952 -8.638952453e-19 -0.001640271745)
(-0.0007139760242 -4.336966757e-19 -0.00124508009)
(-0.000458197052 -2.206790225e-19 -0.0007965711099)
(-0.0001647054229 1.534163309e-19 -0.0002897795762)
(-8.539969344e-05 4.904046594e-19 -0.006668200342)
(-0.0002212738211 6.353450413e-19 -0.00666132123)
(-0.0003483109623 5.164518944e-18 -0.006646326433)
(-0.0004788264795 4.321492531e-18 -0.006624038816)
(-0.0006060085496 2.076648042e-18 -0.006595125734)
(-0.0007288900345 1.759470479e-18 -0.006560123446)
(-0.0008473672619 6.346683845e-19 -0.006519483764)
(-0.0009611975225 -1.072395708e-18 -0.006473648913)
(-0.001070177866 -1.891832042e-18 -0.006423041601)
(-0.001174163373 -1.435501098e-18 -0.006368058507)
(-0.001273045934 -2.768826425e-18 -0.006309067955)
(-0.00136674563 -3.005147164e-18 -0.006246408443)
(-0.001455206131 -3.328124689e-18 -0.006180387479)
(-0.001538390787 -3.498785519e-18 -0.006111281113)
(-0.001616279022 -3.423333691e-18 -0.006039333961)
(-0.001688863917 -3.635648967e-18 -0.005964759922)
(-0.001756149886 -4.080099494e-18 -0.005887743364)
(-0.001818150315 -4.187005819e-18 -0.005808440428)
(-0.001874886144 -4.187717756e-18 -0.005726980782)
(-0.001926384568 -4.154486153e-18 -0.005643469679)
(-0.001972677457 -4.12332731e-18 -0.005557989234)
(-0.002013800504 -3.94647203e-18 -0.00547060004)
(-0.002049791617 -3.916224611e-18 -0.005381341693)
(-0.002080689273 -3.740183753e-18 -0.005290233506)
(-0.002106531264 -3.603976457e-18 -0.005197274041)
(-0.002127352209 -3.805832828e-18 -0.005102439336)
(-0.002143180754 -3.86779196e-18 -0.005005680966)
(-0.002154036525 -3.749363861e-18 -0.004906922064)
(-0.002159925532 -3.548309205e-18 -0.004806051484)
(-0.002160834518 -3.245411307e-18 -0.004702915937)
(-0.002156723602 -3.306061005e-18 -0.004597308981)
(-0.002147516442 -3.285688931e-18 -0.004488955806)
(-0.002133087188 -3.312350795e-18 -0.004377492086)
(-0.002113242645 -3.324333828e-18 -0.004262434972)
(-0.002087698336 -3.292561862e-18 -0.004143143348)
(-0.00205604664 -3.193449639e-18 -0.004018764212)
(-0.00201771566 -2.863692317e-18 -0.003888163295)
(-0.001971919773 -2.563366947e-18 -0.003749841258)
(-0.001917606381 -2.292217702e-18 -0.003601844418)
(-0.001853409026 -2.19559631e-18 -0.003441688395)