/*--------------------------------*- C++ -*----------------------------------*\
  =========                 |
  \\      /  F ield         | OpenFOAM: The Open Source CFD Toolbox
   \\    /   O peration     | Website:  https://openfoam.org
    \\  /    A nd           | Version:  7
     \\/     M anipulation  |
\*---------------------------------------------------------------------------*/
FoamFile
{
    version     2.0;
    format      ascii;
    class       volScalarField;
    location    "0.0006";
    object      generalizedNewtonian:nu;
}
// * * * * * * * * * * * * * * * * * * * * * * * * * * * * * * * * * * * * * //

dimensions      [0 2 -1 0 0 0 0];

internalField   nonuniform List<scalar> 
1167
(
34.86724651
34.69202354
31.27474476
31.11965858
31.18046123
30.90224565
30.63821098
30.32313999
29.96091772
29.5616317
29.13125682
28.6754595
28.20002459
27.70943542
27.20792898
26.69965311
26.1873686
25.67415984
25.16217226
24.65338855
24.14942041
23.65145898
23.1606818
22.67775812
22.20351953
21.73840446
21.28296844
20.83756121
20.40257842
19.97847038
19.56556573
19.16449341
18.77554157
18.3995687
18.03687423
17.6883159
17.35422364
17.03523528
16.7315895
16.44347049
16.17073921
15.91299722
15.66961523
15.43956967
15.22171139
15.0145429
14.81655151
14.62611148
14.44205253
14.26395861
14.08974915
13.91998515
28.14037431
28.00310056
28.06195919
27.81506266
27.582781
27.30467754
26.98432643
26.63016857
26.24741909
25.84112238
25.41587059
24.97555384
24.52412408
24.06464592
23.5998483
23.13236214
22.66383454
22.19637994
21.7309264
21.26901597
20.81117179
20.35852278
19.91132373
19.47046511
19.0360824
18.60884191
18.1890091
17.77714339
17.3737456
16.97932947
16.59471733
16.22044979
15.85756691
15.50674181
15.1689651
14.84507727
14.53580579
14.24189363
13.96365143
13.70154211
13.45531745
13.22482424
13.00925972
12.80777819
12.6190269
12.44169168
12.27446644
12.11647642
11.96484114
11.82384346
25.40527358
25.28374542
25.34090371
25.12180035
24.91770933
24.67255049
24.38924423
24.07526989
23.73506703
23.37301759
22.99264476
22.59752973
22.1910093
21.77549536
21.35368849
20.92738686
20.49845171
20.06822772
19.63795794
19.20855842
18.78086147
18.35543361
17.93293404
17.51363215
17.09818385
16.68673663
16.27990835
15.87803115
15.48165512
15.09149647
14.70813507
14.33256485
13.96561059
13.60833876
13.26196869
12.92750226
12.60623375
12.2992259
12.00750873
11.73211472
11.47364239
11.23272124
11.00945129
10.80369708
10.61476374
10.44166272
10.28335477
10.13828742
10.00292944
9.884454234
23.01740498
22.90976327
22.96542699
22.7709811
22.59198567
22.37586149
22.12547917
21.8473323
21.54530903
21.22267772
20.88258633
20.52826961
20.16212776
19.78653947
19.40360693
19.01487203
18.62201472
18.22597521
17.82800346
17.4286663
17.02879219
16.62879133
16.22912969
15.83020539
15.4322203
15.03573703
14.6408959
14.2481738
13.85811889
13.47121394
13.08826453
12.71007218
12.33756344
11.97197866
11.61447981
11.26637065
10.92919529
10.6044082
10.29351447
9.998155641
9.719791927
9.459824675
9.219576945
8.999839317
8.801104222
8.623252328
8.465729915
8.326547596
8.201329888
8.099504476
20.93095296
20.83552493
20.88989424
20.717378
20.560453
20.37011685
20.14907596
19.9030418
19.6350674
19.34779918
19.0440915
18.72646034
18.39689233
18.05764891
17.71009619
17.35590466
16.99607522
16.63179652
16.26365525
15.8925514
15.51876518
15.1428923
14.76512275
14.38573127
14.00507266
13.62324117
13.24057092
12.85741474
12.47408846
12.09113068
11.70923415
11.32908002
10.95158788
10.57792184
10.20929207
9.847075114
9.492840688
9.148373986
8.815509041
8.496235695
8.192714677
7.907287852
7.642205376
7.399668279
7.181604322
6.989325769
6.823461365
6.682235944
6.56070986
6.47010121
19.10592345
19.02131643
19.07446727
18.92127579
18.78393812
18.61656033
18.42172377
18.20442202
17.966846
17.71133508
17.44042825
17.15586449
16.85962303
16.55327795
16.23819223
15.91559931
15.58643475
15.25153196
14.91154288
14.56690578
14.2181849
13.86549032
13.5091411
13.14931388
12.78608065
12.41964568
12.0501935
11.67786511
11.30294431
10.92589262
10.54717598
10.16739044
9.787329977
9.40796836
9.030495951
8.656216611
8.286678522
7.923650771
7.569146999
7.225453081
6.89514101
6.581064843
6.286268491
6.013910008
5.767196011
5.549452037
5.363770847
5.210149387
5.08423538
4.9986333
17.5081933
17.43306005
17.48465949
17.34839149
17.22820391
17.08095635
16.90926743
16.71711538
16.50639992
16.27922146
16.03737087
15.78244818
15.51617039
15.23958987
14.95413032
14.66047487
14.35968512
14.05220554
13.73866061
13.41942868
13.09472441
12.76489261
12.42996846
12.09003004
11.74520256
11.39554466
11.04107644
10.68189964
10.31818684
9.950237462
9.578340982
9.202949807
8.824674464
8.444269679
8.062678407
7.68105081
7.300754052
6.923434777
6.551032862
6.185810331
5.830389515
5.487760621
5.161317673
4.854989851
4.573386761
4.321870259
4.105761789
3.927459407
3.78562951
3.696124653
16.10715723
16.04010154
16.08935872
15.96790733
15.86277342
15.73327727
15.58188877
15.4120238
15.22533059
15.02354129
14.80795885
14.58014991
14.34119943
14.09226111
13.83416074
13.56776141
13.29354004
13.01221499
12.72398929
12.4292002
12.12811855
11.82078131
11.50728009
11.18771476
10.8620708
10.53032724
10.19249708
9.848628404
9.498809261
9.14316464
8.781909796
8.41534391
8.043860525
7.668011626
7.288457782
6.906063841
6.521917094
6.137369908
5.754164642
5.374377531
5.00057279
4.63590504
4.284160766
3.949621523
3.636852847
3.350378629
3.094416394
2.872867685
2.69442698
2.590548585
14.87270058
14.81234639
14.86012375
14.7532148
14.66335715
14.55167475
14.42063815
14.27323867
14.11086184
13.93459432
13.74565201
13.54517303
13.33395528
13.11293607
12.88268104
12.64380629
12.39676803
12.14185629
11.87945872
11.60968655
11.33265293
11.04844988
10.75719852
10.45883574
10.15336193
9.840771608
9.521073868
9.194287361
8.8604523
8.519654062
8.172011038
7.817689978
7.456926045
7.090070725
6.717502797
6.339713613
5.957439102
5.571551639
5.183251003
4.794109901
4.406246915
4.022289397
3.645417233
3.279137053
2.927299162
2.594980878
2.289414358
2.018762608
1.795828753
1.661597595
13.79584338
13.73727784
13.78595723
13.6924007
13.61665897
13.52096378
13.40801735
13.28032371
13.13865696
12.98374479
12.81664148
12.63788932
12.44833613
12.2483919
12.03880853
11.81984482
11.5919615
11.35554675
11.11079718
10.85795928
10.59728501
10.32893064
10.05301758
9.769683077
9.479049748
9.181248852
8.876395991
8.564615217
8.2460563
7.92086366
7.589274569
7.251391958
6.907415209
6.557625791
6.202189479
5.841446417
5.475641938
5.105197332
4.730686625
4.352894837
3.972983156
3.592662114
3.214367679
2.841642614
2.479665877
2.135752998
1.817222211
1.524417946
1.2515498
1.011200937
12.86902283
12.8127893
12.86075053
12.77314637
12.70351952
12.61528483
12.51142552
12.39442062
12.26481932
12.12356764
11.97151748
11.80931963
11.63767885
11.45710648
11.26804269
11.07099725
10.86619616
10.65392523
10.43449767
10.20802237
9.974647128
9.734493732
9.487661042
9.234219858
8.974243374
8.707781902
8.434858354
8.155499802
7.869705415
7.577557714
7.278938381
6.973825736
6.662162524
6.343823986
6.018676865
5.686568775
5.347261497
5.00058065
4.646367173
4.284586211
3.915448103
3.539568036
3.158209057
2.773590334
2.389000318
2.008635554
1.636705338
1.27214922
0.902323522
0.532667287
12.06052617
12.01296824
12.0626669
11.98531373
11.92648088
11.85142444
11.76263743
11.66200416
11.54989511
11.42707628
11.29395382
11.151163
10.99902236
10.8381067
10.66861303
10.49093766
10.30541459
10.11222486
9.911612621
9.703807592
9.48903748
9.267461132
9.039239903
8.804535806
8.563517458
8.316340111
8.06313048
7.803975241
7.538963866
7.26821704
6.991719249
6.709495545
6.421485424
6.127688817
5.827927227
5.522042031
5.209868699
4.891176054
4.56570637
4.23321472
3.893522512
3.546482915
3.192179784
2.830896309
2.463203032
2.089686296
1.708259855
1.309039613
0.89238474
0.5261386319
11.33584877
11.29528178
11.34486768
11.27706052
11.22755046
11.16404237
11.08869047
11.00297789
10.90726644
10.80204004
10.68758449
10.56437879
10.43261802
10.29262244
10.14465681
9.988871886
9.82550011
9.654765976
9.476772331
9.2916862
9.099657787
8.900833543
8.695337385
8.483300708
8.264814078
8.039950944
7.808798895
7.571366999
7.327577443
7.077376439
6.820561913
6.556914873
6.286063928
6.007561496
5.720850054
5.425247129
5.119964799
4.804136995
4.47686755
4.137349791
3.78515376
3.42037051
3.044135277
2.658996585
2.269246914
1.880639055
1.499190434
1.132272904
0.7979877118
0.5306983583
10.67715901
10.64095357
10.68984284
10.62952194
10.58710265
10.53248535
10.46731879
10.39300674
10.30987652
10.21810003
10.11803006
10.00983601
9.893808979
9.770008349
9.638695314
9.499987927
9.353977921
9.200800168
9.040591099
8.873494012
8.699589085
8.518975965
8.331759477
8.138069397
7.937922454
7.731352355
7.518327013
7.298863238
7.072737321
6.839786572
6.599652916
6.352020624
6.096315078
5.83189025
5.558011689
5.273820529
4.978310907
4.670427355
4.349105507
4.013395373
3.662672128
3.297053915
2.917960641
2.528842745
2.135948213
1.748657834
1.379547436
1.044420045
0.7603179721
0.5401304193
10.08012119
10.04670556
10.09496592
10.04108271
10.00482025
9.957894189
9.901569862
9.837201062
9.764953187
9.684863709
9.597271024
9.502149756
9.39972247
9.290037473
9.173150206
9.049202298
8.918252547
8.780347434
8.635576124
8.484018954
8.325758791
8.160862289
7.989402651
7.811407513
7.626908612
7.43591744
7.238290932
7.033919765
6.82256633
6.603916584
6.377528231
6.142929521
5.899438145
5.646266614
5.382541824
5.107225829
4.819181593
4.517213102
4.200063896
3.866719659
3.51663933
3.150401645
2.770509262
2.382543591
1.995931243
1.623698412
1.280890442
0.9816811168
0.7356860858
0.5454405863
9.537801485
9.506579676
9.554168291
9.5058608
9.474870273
9.434503386
9.385786533
9.33001526
9.267105126
9.197170812
9.120274953
9.036497154
8.945787937
8.848290877
8.743941133
8.632747635
8.514739878
8.389968953
8.258467664
8.120254056
7.975362795
7.823856722
7.665766871
7.501065316
7.329727375
7.151702259
6.966869319
6.774978744
6.575785202
6.368877138
6.153779701
5.929896623
5.696514128
5.452789583
5.197747628
4.930275836
4.649126883
4.352948084
4.040455069
3.710587705
3.363028804
2.998980422
2.62241884
2.241244834
1.867681115
1.516656458
1.202405432
0.9348669046
0.7177360891
0.5488612926
9.04393931
9.014565197
9.061362738
9.017848844
8.991161385
8.956260836
8.913940331
8.865320863
8.81022335
8.748788104
8.680864061
8.606570222
8.525768178
8.438417789
8.344561704
8.244095697
8.136993413
8.023248774
7.90285751
7.775826838
7.642159098
7.501869975
7.354939745
7.201390132
7.041135508
6.874040528
6.700017533
6.518744427
6.329956784
6.133217461
5.928008912
5.713688336
5.489508862
5.254595468
5.007884773
4.748182646
4.474135585
4.184317786
3.877370244
3.552266142
3.209081613
2.84990379
2.480355417
2.110581414
1.754540304
1.427055716
1.139799618
0.8986732655
0.7037056879
0.5507394844
8.593381128
8.565597096
8.611512667
8.571981795
8.548793117
8.51838519
8.481356982
8.438579145
8.389964358
8.335449882
8.274967697
8.208399778
8.135738041
8.056813104
7.971541746
7.879857154
7.781732781
7.677084935
7.565882013
7.448101406
7.323762277
7.192850984
7.055321801
6.911138178
6.760278663
6.602574726
6.437872302
6.265881404
6.0863225
5.898731953
5.702562311
5.497145869
5.28171347
5.055316187
4.816830595
4.564975099
4.298290659
4.015297914
3.714562664
3.395271209
3.057971204
2.705902322
2.346368714
1.991241744
1.655031955
1.351127844
1.088237615
0.8691616002
0.6918491428
0.5514126061
8.181519738
8.155092253
8.199945974
8.163735673
8.143337066
8.116583439
8.083767582
8.045681128
8.00228256
7.953313832
7.898804183
7.838502377
7.772310713
7.700154323
7.621845256
7.537289317
7.44640989
7.34914279
7.245445809
7.135284422
7.018650355
6.895515887
6.765915331
6.62975948
6.48697888
6.33748054
6.181046036
6.017414253
5.846281896
5.667168378
5.479500158
5.28259908
5.075639708
4.857599343
4.627298095
4.383352874
4.124249704
3.848415661
3.554474002
3.241889209
2.911862606
2.568852502
2.221684154
1.883239291
1.567573245
1.286042305
1.04468838
0.8441567894
0.6813149114
0.5511525347
7.804073965
7.778793459
7.822455693
7.788980582
7.770736435
7.74684457
7.717279418
7.682885695
7.643492326
7.598898414
7.548960985
7.493552156
7.43245715
7.365532358
7.292668315
7.213736791
7.12862796
7.037278648
6.939642303
6.835714388
6.725498147
6.608953823
6.486071217
6.356873553
6.22122468
6.079055024
5.930126146
5.774208544
5.610948675
5.439853469
5.260327561
5.071663963
4.872968026
4.663163901
4.440995402
4.20499643
3.953601108
3.685197586
3.398544903
3.09347003
2.77195433
2.439630369
2.106506384
1.785757967
1.490341014
1.229473653
1.007038264
0.8222990244
0.6716181579
0.5501365327
7.45721084
7.432893872
7.475247691
7.443985441
7.427371941
7.405549251
7.378397172
7.34676241
7.310323407
7.268987926
7.222481006
7.17068529
7.113427578
7.05050698
6.98179016
6.907169495
6.826558369
6.739902637
6.647166074
6.548347995
6.443442721
6.332507148
6.215504868
6.092414931
5.963192957
5.827696596
5.685716428
5.537034956
5.381231184
5.217801334
5.046135203
4.865469834
4.674845719
4.473138917
4.259011142
4.030949645
3.78734043
3.526602011
3.247674402
2.950834578
2.638891211
2.318520205
2.000494824
1.697694483
1.421652509
1.1796024
0.9738254106
0.8027054065
0.6624566836
0.5484865852
7.137469215
7.113950205
7.154890611
7.125400525
7.10985824
7.089455888
7.064015847
7.034252127
6.999901664
6.960785365
6.916713939
6.867469468
6.812903249
6.752876366
6.687224731
6.615851128
6.538691572
6.455708839
6.366897412
6.272320957
6.171954932
6.065832497
5.954015013
5.836438353
5.713078903
5.583765976
5.44832955
5.306480995
5.157792046
5.00173326
4.837663206
4.664757672
4.482012042
4.288243157
4.082049858
3.861878722
3.626095536
3.373212977
3.102405282
2.814444506
2.512953537
2.205448561
1.903032995
1.617908117
1.360059034
1.13506423
0.9440061264
0.7847843945
0.6536351358
0.5462855515
6.841707934
6.81884178
6.858293601
6.830148649
6.815187235
6.795644457
6.771271172
6.742629392
6.709585476
6.671837307
6.629288952
6.581720745
6.528957236
6.470867891
6.407354465
6.338343851
6.263800316
6.183713158
6.098110738
6.007029326
5.910545742
5.808706656
5.701513449
5.58899654
5.471050613
5.347542527
5.218291701
5.08294722
4.941068338
4.792108324
4.63537545
4.4699898
4.294911802
4.108896331
3.910508403
3.698160676
3.470238329
3.225379719
2.963038254
2.684511146
2.394155634
2.100092726
1.813375156
1.545302993
1.304375402
1.094796997
0.9168329646
0.7681167748
0.6450177585
0.5435891406
3.54001515
3.319968543
3.083277647
2.829709419
2.56107455
2.282326927
2.001979851
1.730756002
1.478908349
1.253613097
1.057998549
0.8917492448
0.7523981279
0.6365050175
0.5404337757
)
;

boundaryField
{
    front_top
    {
        type            wedge;
    }
    front_middle
    {
        type            wedge;
    }
    front_bottom
    {
        type            wedge;
    }
    back_top
    {
        type            wedge;
    }
    back_middle
    {
        type            wedge;
    }
    back_bottom
    {
        type            wedge;
    }
    axis_top
    {
        type            symmetryPlane;
    }
    axis_middle
    {
        type            symmetryPlane;
    }
    axis_bottom
    {
        type            symmetryPlane;
    }
    wall_top
    {
        type            calculated;
        value           nonuniform List<scalar> 10(13.83695896 11.75865829 9.833990607 8.060993935 6.441009327 4.976368508 3.678056496 2.574540807 1.640784445 0.9618986316);
    }
    wall_middle
    {
        type            calculated;
        value           nonuniform List<scalar> 
14
(
0.4237659859
0.413218419
0.4434808607
0.4636876017
0.476418086
0.4856500073
0.4921055924
0.4965620988
0.4995320799
0.5013393774
0.5022039765
0.5022752655
0.5016560476
0.5004169485
)
;
    }
    wall_bottom
    {
        type            calculated;
        value           nonuniform 0();
    }
    inlet
    {
        type            calculated;
        value           nonuniform 0();
    }
    outlet
    {
        type            calculated;
        value           nonuniform 0();
    }
    procBoundary5to4
    {
        type            processor;
        value           nonuniform List<scalar> 
51
(
6.567091568
6.544764278
6.582633393
6.555426689
6.54064929
6.52152099
6.49759748
6.469483487
6.437026368
6.399985047
6.358178255
6.311505547
6.25979181
6.202923856
6.140835134
6.07348978
6.000885369
5.923049499
5.840065957
5.75199972
5.658909741
5.560881814
5.457943501
5.350082473
5.237204014
5.119198614
4.995805084
4.866668852
4.731321432
4.589189226
4.439529225
4.281423555
4.113791617
3.935340965
3.744616391
3.744616391
3.38752884
3.175377484
2.946966358
2.702423334
2.444024087
2.177201414
1.910583711
1.654408342
1.417873352
1.206987277
1.02403536
0.8683296751
0.7374008772
0.6280203319
0.5368421787
)
;
    }
    procBoundary5to6
    {
        type            processor;
        value           nonuniform List<scalar> 
51
(
38.98415048
38.78611863
34.75501164
34.75501164
34.44155282
34.14172984
33.78513393
33.37585142
32.92569418
32.44186592
31.93082708
31.398972
30.85216567
30.29496052
29.73197041
29.16683862
28.60253135
28.04211286
27.4872571
26.94023012
26.40201067
25.87411513
25.35710054
24.8519487
24.35893554
23.87875693
23.41145829
22.95761607
22.51716941
22.09073968
21.67822029
21.28029941
20.89689165
20.52862547
20.17549036
19.83788157
19.51566634
19.2088825
18.91707722
18.63973873
18.37588257
18.12443106
17.88394274
17.65293976
17.42969214
17.21263531
16.9999532
16.79065052
16.58465326
16.38102222
16.17555017
)
;
    }
}


// ************************************************************************* //
