/*--------------------------------*- C++ -*----------------------------------*\
  =========                 |
  \\      /  F ield         | OpenFOAM: The Open Source CFD Toolbox
   \\    /   O peration     | Website:  https://openfoam.org
    \\  /    A nd           | Version:  7
     \\/     M anipulation  |
\*---------------------------------------------------------------------------*/
FoamFile
{
    version     2.0;
    format      ascii;
    class       volTensorField;
    location    "0.0006";
    object      grad(U);
}
// * * * * * * * * * * * * * * * * * * * * * * * * * * * * * * * * * * * * * //

dimensions      [0 0 -1 0 0 0 0];

internalField   nonuniform List<tensor> 
1167
(
(-0.4166483181 -2.96604757e-15 0.01099654358 3.344969947e-15 -0.6905114426 0 0.06150751102 -7.638479025e-15 1.145051686)
(-0.5526366116 3.90403208e-16 0.01792159122 2.286190532e-15 -0.5990612609 0 0.1588023208 -2.535038489e-14 1.142752177)
(-0.483055884 7.429416715e-15 0.01254785883 -6.794126114e-15 -0.800934448 0 0.06986883321 1.166156307e-15 1.325940947)
(-0.6407782011 2.686842466e-15 0.02053322843 -1.044807602e-14 -0.6946652123 0 0.1803152617 6.28735368e-15 1.323382967)
(-0.6331125124 -4.565031769e-15 0.03133508261 -2.863456375e-15 -0.66205963 0 0.2839261805 -6.572125727e-15 1.319848488)
(-0.644647676 1.733752744e-14 0.046243674 0 -0.6571924549 1.345768327e-13 0.3913762553 -1.432352483e-14 1.313970194)
(-0.6394122967 -6.300927169e-15 0.06118361023 -8.407804822e-15 -0.6538541526 5.380995086e-14 0.4963801404 -1.363999484e-14 1.3060738)
(-0.6321442483 -2.751741163e-14 0.07725116018 0 -0.6505667034 0 0.5986565788 -3.29163533e-15 1.296144718)
(-0.6234414796 -4.281153895e-15 0.09476716215 2.461483205e-15 -0.6471814104 0 0.6982108157 1.366386858e-15 1.284094686)
(-0.6127783982 -5.832693156e-15 0.1137801463 1.096709106e-15 -0.6434957869 0 0.7948923413 6.994475587e-15 1.269844625)
(-0.6001751212 -2.965398675e-15 0.1343518136 3.979774893e-15 -0.6394095024 0 0.8886061913 3.873248471e-15 1.253304067)
(-0.5856100432 -6.03327473e-15 0.1565240443 -1.830540244e-15 -0.6348725723 -2.92886439e-14 0.97928438 7.126805203e-15 1.234364671)
(-0.5689976791 -3.4887056e-15 0.180291687 3.405561997e-15 -0.6298512879 2.724449598e-14 1.066856351 -2.295957138e-15 1.212915346)
(-0.5502521742 2.903337919e-16 0.2056116058 3.19679358e-15 -0.6243194382 0 1.151267312 2.093931363e-15 1.188853235)
(-0.529284609 2.56888571e-16 0.2324222421 3.023608009e-15 -0.6182568445 -2.418886407e-14 1.232469522 4.905573511e-15 1.162063866)
(-0.5059959655 4.911684369e-15 0.2606322047 1.439074333e-15 -0.611645614 0 1.310402363 4.665100482e-15 1.132437374)
(-0.4802950061 1.479590136e-17 0.2901302764 2.754727817e-15 -0.6044697178 0 1.385015717 5.32826349e-15 1.099870235)
(-0.452084313 -1.034815205e-16 0.3207936489 1.324563463e-15 -0.5967151971 0 1.456243736 7.428303918e-15 1.06425086)
(-0.4212690478 -2.023537663e-16 0.3524767111 2.558151318e-15 -0.5883684229 0 1.524015271 5.285187032e-15 1.025479625)
(-0.3877545757 -4.469587423e-15 0.3850252658 1.239668884e-15 -0.5794174941 0 1.588244746 4.18590551e-15 0.983448064)
(-0.3514460191 7.604242212e-16 0.4182701031 0 -0.5698506697 -1.928605331e-14 1.64882886 5.147557968e-15 0.9380591951)
(-0.3122501066 4.179461447e-15 0.4520299085 2.350875321e-15 -0.5596575201 0 1.705646055 2.693588289e-15 0.8892091587)
(-0.2700745419 1.632939883e-15 0.4861093806 2.298461087e-15 -0.5488278507 9.193844347e-15 1.758546505 7.983745455e-16 0.8368027975)
(-0.2248301823 3.866005003e-15 0.5202985742 2.252511592e-15 -0.5373526011 0 1.807354658 9.991554826e-16 0.7807431368)
(-0.1764320736 2.959686544e-15 0.5543702951 0 -0.5252231163 0 1.851858236 1.009899616e-15 0.7209421699)
(-0.1248024346 5.913010268e-15 0.5880759955 -1.08842756e-15 -0.5124319431 -8.707420477e-15 1.891807974 3.450199032e-15 0.6573161457)
(-0.06987414603 6.45550096e-15 0.6211453737 0 -0.49897237 0 1.926910735 -7.357243184e-16 0.5897973746)
(-0.01159686961 4.824308381e-15 0.6532814242 0 -0.4848392542 0 1.956827698 1.095535488e-15 0.5183306779)
(0.05005787022 5.379440992e-15 0.6841570157 0 -0.4700288918 0 1.981169531 3.461601057e-15 0.4428874557)
(0.1150884387 5.723234475e-15 0.7134091483 0 -0.4545398756 0 1.999494334 7.614193751e-16 0.3634671397)
(0.1834540855 5.215792545e-15 0.7406368323 0 -0.4383732626 0 2.011306954 6.959338396e-16 0.2801141899)
(0.255062392 4.34621428e-15 0.7653994051 0 -0.4215335773 0 2.01606095 3.582692895e-17 0.1929220739)
(0.3297589434 6.808362209e-15 0.787218271 0 -0.4040293287 0 2.01316406 -7.533221822e-16 0.1020533329)
(0.4073118409 3.110217648e-15 0.8055769623 1.009785311e-15 -0.385874079 8.078282489e-15 2.001984011 -1.948486132e-15 0.007746910585)
(0.4874015382 2.602438375e-16 0.8199340349 0 -0.3670872772 0 1.981865309 -2.236846911e-15 -0.08966328005)
(0.5696071852 2.157499268e-15 0.8297312873 0 -0.3476952739 8.019162433e-15 1.95214269 -2.448017071e-15 -0.1897370437)
(0.6533951997 1.555729649e-15 0.8344155913 0 -0.3277322574 0 1.912172509 -1.96376592e-15 -0.2919183522)
(0.7381159603 2.346096906e-15 0.8334572576 -1.497757626e-15 -0.3072412218 0 1.861356521 -1.962709672e-15 -0.3955263532)
(0.8230022623 3.041918684e-15 0.8263743002 -1.496600608e-15 -0.2862745389 0 1.799182054 -2.420872385e-15 -0.4997563583)
(0.9071787854 2.455236933e-15 0.812761177 -4.988417895e-16 -0.2648945402 1.596293726e-14 1.72526142 -3.536895491e-15 -0.6036866152)
(0.9896752335 2.502612038e-15 0.7923087212 -9.983150473e-16 -0.2431733995 0 1.639372689 -3.068869189e-15 -0.7062946174)
(1.069450917 2.352557763e-15 0.7648184297 -4.99796504e-16 -0.2211930076 7.996744064e-15 1.541506103 -2.550175841e-15 -0.8064809831)
(1.145429163 5.071001711e-16 0.7302090203 -1.502229243e-15 -0.1990439475 0 1.431893888 -9.873673802e-17 -0.9030978144)
(1.216532557 -1.74027419e-16 0.6885140766 -1.003966631e-15 -0.1768243058 0 1.311039416 -1.066483682e-15 -0.9949944474)
(1.281721555 1.327600508e-16 0.6398677684 -5.035047853e-16 -0.1546378237 0 1.179725133 -6.273313029e-16 -1.081048884)
(1.340030296 -1.951608547e-15 0.5844863794 -5.052963723e-16 -0.132591953 0 1.039007713 -4.425397723e-16 -1.160212349)
(1.390602857 6.403784524e-16 0.5226421608 -7.610222846e-16 -0.110795537 -8.117571036e-15 0.890188597 3.027589672e-17 -1.231531759)
(1.432717973 2.90585896e-15 0.4546284091 -2.548256893e-16 -0.08935649865 0 0.7347726167 1.893492785e-16 -1.294171215)
(1.465678639 5.79724193e-16 0.3807371591 -7.682971186e-16 -0.06837959126 0 0.5744274274 -1.258710848e-16 -1.347409311)
(1.488694717 7.847931796e-16 0.3013162963 -6.437265427e-16 -0.04796772924 0 0.4109609556 -3.318868998e-16 -1.390647443)
(1.50170612 8.182190317e-16 0.2167626426 -7.122425946e-16 -0.02822301308 0 0.2461484635 -5.085282206e-16 -1.423434209)
(1.506616865 3.996398028e-16 0.08636379788 -6.841178598e-16 -0.009227368655 4.169861241e-15 0.08153337207 -4.941344833e-16 -1.445415145)
(-0.5570166252 -9.265045969e-15 0.01424445782 6.899932416e-15 -0.92400248 0 0.07875555581 1.076182413e-14 1.527468791)
(-0.7389484921 1.011340543e-14 0.02341575636 7.073857348e-15 -0.8011717741 -1.509089568e-13 0.2031600322 3.416557579e-14 1.52462927)
(-0.7303438628 1.784872216e-14 0.03578693047 -2.908049561e-15 -0.7635557536 0 0.3198678985 2.125268194e-14 1.520643196)
(-0.7438009395 4.567154673e-15 0.05273488368 -4.27101953e-15 -0.7580318727 0 0.4409387357 7.196713361e-15 1.514048462)
(-0.7379178995 -1.268636813e-14 0.06967655676 -3.415496508e-15 -0.7542336176 0 0.5592047295 2.204155633e-14 1.505227674)
(-0.7298593884 -1.766631609e-14 0.08787317102 0 -0.7505241075 0 0.6743995324 5.468541364e-15 1.494172936)
(-0.7202393235 -1.285550104e-14 0.1076709751 2.499816382e-15 -0.7467298322 0 0.7865341129 3.330109254e-15 1.480812001)
(-0.708483557 -5.50150549e-15 0.129128421 4.455153517e-15 -0.7426183138 0 0.8954595865 1.033656919e-14 1.465078646)
(-0.6946414731 4.973250434e-16 0.1523305009 4.041752733e-15 -0.7380791643 0 1.001091781 3.260557586e-15 1.44688337)
(-0.6786961387 3.670892855e-15 0.1773337012 3.718095236e-15 -0.7330583806 0 1.103369098 8.191609924e-15 1.426122675)
(-0.6605699801 1.317239284e-16 0.2041399984 5.187896255e-15 -0.7275196975 0 1.202247002 -1.379690226e-14 1.402699276)
(-0.6401831333 -5.554691865e-15 0.2327206131 3.246577894e-15 -0.721437005 0 1.297706413 2.160255922e-15 1.376505321)
(-0.6174379756 -1.643301765e-15 0.2630253826 1.535347634e-15 -0.714789923 0 1.389722141 9.837757206e-17 1.347424062)
(-0.5922349183 5.223668265e-16 0.2949709661 2.922970658e-15 -0.7075598825 0 1.478279282 4.070469097e-15 1.315348781)
(-0.5644715643 -1.528586647e-15 0.3284605461 2.797627751e-15 -0.6997311036 0 1.563367021 4.290376158e-15 1.280157807)
(-0.5340365651 -1.103477122e-16 0.3633785892 2.690382316e-15 -0.6912882431 0 1.644961438 4.816339551e-15 1.241733016)
(-0.5008171024 1.593298509e-15 0.3995952218 0 -0.6822169091 0 1.723044005 4.45533007e-15 1.199953194)
(-0.4646925841 3.196614938e-17 0.4369677046 0 -0.6725029533 0 1.797571873 3.7508761e-15 1.154685952)
(-0.4255382115 1.673642486e-15 0.4753411897 0 -0.6621323751 0 1.868497989 -1.302176274e-16 1.105801831)
(-0.3832211241 3.320097689e-15 0.5145500206 0 -0.6510912356 0 1.935743544 2.654374087e-15 1.053155957)
(-0.3376014527 2.740014741e-15 0.5544136525 0 -0.6393653191 0 1.999212306 -3.448022396e-15 0.9966044338)
(-0.2885329541 3.00469639e-15 0.5947367603 0 -0.626940244 0 2.058766929 1.758531083e-15 0.9359875689)
(-0.2358605843 2.911436394e-15 0.6353047153 0 -0.6138012828 0 2.114237058 1.576773668e-15 0.8711461651)
(-0.1794259424 4.529458506e-15 0.675877223 0 -0.5999333194 0 2.165398612 1.618575851e-15 0.8019088367)
(-0.1190683234 5.269514575e-15 0.7161867902 0 -0.5853211011 0 2.211976804 2.164047103e-15 0.7281064978)
(-0.05462960472 2.063584998e-15 0.7559320936 0 -0.5699492385 0 2.25363116 2.848116175e-15 0.649569483)
(0.01404071135 6.10533623e-15 0.7947688961 -2.127932028e-15 -0.5538026711 -1.702345623e-14 2.289951049 3.119540295e-15 0.5661360761)
(0.0870773407 9.455765826e-15 0.8323014447 0 -0.5368668665 0 2.320442287 2.61844563e-15 0.4776619162)
(0.164585865 6.120342414e-15 0.8680756164 0 -0.5191285457 0 2.344525842 3.547186805e-15 0.3840288064)
(0.2466297494 5.682970609e-15 0.9015727498 0 -0.5005763693 0 2.361525494 1.344005595e-15 0.2851623524)
(0.3332140374 6.05374039e-15 0.9322029862 0 -0.4812019546 0 2.370668259 3.764871231e-16 0.1810491411)
(0.4242633521 4.872178261e-15 0.9593091363 0 -0.4610009343 0 2.371083938 1.427377151e-15 0.07175610364)
(0.5196019148 3.050881154e-15 0.9821627463 1.021282217e-15 -0.439974469 8.170257735e-15 2.361805978 -1.346683035e-15 -0.04254386224)
(0.6189230025 1.676130659e-15 0.9999829393 0 -0.4181305839 0 2.341790201 -1.059658644e-15 -0.1615468579)
(0.7217664641 1.210011273e-15 1.011950824 0 -0.3954862659 0 2.309934115 -1.142537819e-15 -0.2847877416)
(0.8274977134 2.173682361e-15 1.017236195 0 -0.3720689357 0 2.265107316 -1.358315493e-15 -0.4116161262)
(0.9352815017 3.385158505e-15 1.015034521 -1.013271648e-15 -0.3479184845 0 2.206202629 -1.201265176e-15 -0.541180861)
(1.044079528 2.492483361e-15 1.004606731 -1.013220707e-15 -0.3230889098 0 2.132191996 -6.958798712e-16 -0.6724073758)
(1.152642121 1.576238593e-15 0.9853215204 -1.01386201e-15 -0.2976495469 0 2.042201423 -7.882919023e-16 -0.8040083573)
(1.25952979 1.153951261e-15 0.9566860403 -1.015159872e-15 -0.2716862429 0 1.935591772 -2.52918829e-16 -0.9344895305)
(1.363151041 4.419938638e-17 0.9183888769 -1.017082509e-15 -0.2453012217 0 1.812048662 -3.172224513e-16 -1.062190229)
(1.461810089 -2.598789252e-16 0.8703075519 -1.019601607e-15 -0.2186125874 0 1.671659528 -8.054036327e-16 -1.185334661)
(1.553778816 -2.746487129e-17 0.8125086822 -1.534037902e-15 -0.1917525946 0 1.51498906 -1.002520502e-15 -1.302101924)
(1.63737473 6.965820141e-17 0.7452300332 -1.02633091e-15 -0.1648651322 0 1.343109051 -4.559222931e-16 -1.410704383)
(1.711050066 9.107432605e-17 0.6688364876 -5.152492258e-16 -0.1381022511 0 1.157601027 -1.019400913e-15 -1.50946758)
(1.773439725 7.172439193e-16 0.5837627014 -5.175882828e-16 -0.1116199765 0 0.9605012671 -1.845484602e-15 -1.596888044)
(1.823245318 9.418005753e-16 0.4904707563 -5.201746435e-16 -0.08557467279 0 0.7542494681 -1.322190986e-16 -1.671663142)
(1.85930344 9.999076995e-16 0.3895421716 -7.845017119e-16 -0.06012313636 0 0.5416149696 -1.463468234e-16 -1.732711834)
(1.881630772 8.322456521e-16 0.2815881223 -7.233344927e-16 -0.03541789711 0 0.3253550476 1.82225509e-15 -1.779233751)
(1.890797604 2.82516921e-16 0.1126174552 -6.947717658e-16 -0.01158207592 0 0.1079154242 3.812685212e-16 -1.810590892)
(-0.6387439993 -2.189468833e-14 0.01609797632 2.627773189e-14 -1.060095414 0 0.0880774231 4.978866106e-15 1.750231773)
(-0.8474269269 -2.96995986e-16 0.02660270721 3.113079185e-14 -0.9188966019 0 0.2270998683 1.309887345e-14 1.747080246)
(-0.8378012316 1.887657816e-14 0.04071671202 7.38335219e-15 -0.8757301054 -1.890138161e-13 0.3575158363 3.930198672e-14 1.742567656)
(-0.853365829 1.395721576e-14 0.0598886278 0 -0.8694829777 0 0.4928372584 3.212690801e-14 1.735154237)
(-0.8467365804 -2.67434724e-15 0.07899996171 0 -0.8651662721 0 0.6249422988 2.042261885e-14 1.725287664)
(-0.837797132 -1.142428703e-14 0.09948435532 2.918051863e-15 -0.8609819093 0 0.7535913504 1.259066557e-14 1.712976087)
(-0.8271689646 -9.346763972e-15 0.1217126953 5.077499367e-15 -0.8567292433 0 0.8788036225 4.356008418e-15 1.698169645)
(-0.814228986 -5.096735411e-15 0.145760076 4.524540148e-15 -0.852144153 0 1.000425523 -2.745458129e-15 1.680814108)
(-0.7990569194 -1.396961184e-15 0.1717347395 4.104700869e-15 -0.8471057838 0 1.118374578 2.62598527e-15 1.660832846)
(-0.7816544436 1.169307049e-14 0.1996999604 1.888001289e-15 -0.8415557363 -3.020802063e-14 1.232603696 4.67951335e-15 1.638142644)
(-0.7619661938 1.087354364e-15 0.2296715125 1.756231654e-15 -0.8354574319 2.809970647e-14 1.343105817 7.978129291e-15 1.61266182)
(-0.7399148665 -1.311128967e-14 0.2616426962 3.297141607e-15 -0.8287863786 0 1.449888859 3.380010146e-15 1.584285831)
(-0.7154075971 -1.933847668e-15 0.2955688668 4.677779555e-15 -0.8215224205 2.494815763e-14 1.552965742 4.792982583e-15 1.552912417)
(-0.6883515147 5.942786563e-16 0.3313839471 0 -0.8136487998 0 1.652376266 1.805075977e-15 1.518436742)
(-0.6586371654 -8.15734957e-16 0.369008606 0 -0.8051506384 0 1.748151882 3.073792077e-15 1.480736205)
(-0.6261505187 -2.561515856e-16 0.4083414435 0 -0.7960130567 0 1.840336019 2.940256088e-15 1.439693649)
(-0.5907653501 1.010032494e-15 0.4492753294 0 -0.7862221298 0 1.92896422 4.163413037e-15 1.395170478)
(-0.5523444238 8.365724378e-16 0.4916890126 0 -0.7757628804 0 2.014069342 3.716308451e-15 1.347027947)
(-0.510737558 1.842969723e-15 0.5354535816 2.486430826e-15 -0.7646204495 9.945723303e-15 2.095669427 2.101163949e-15 1.295101847)
(-0.4657783171 8.282709903e-15 0.580431247 0 -0.75277849 0 2.173766385 2.321867014e-15 1.239223174)
(-0.4172841155 2.409966101e-15 0.6264737778 1.185305133e-15 -0.740220008 9.482441065e-15 2.248336828 2.729794662e-15 1.17919513)
(-0.3650514981 -2.087266538e-15 0.6734202664 0 -0.7269262157 0 2.319326757 3.6901246e-15 1.114808493)
(-0.3088570896 3.126121313e-15 0.7210912897 0 -0.7128770099 0 2.386639984 4.414298747e-15 1.045824319)
(-0.2484538272 5.139373509e-15 0.7692852033 0 -0.6980502297 0 2.450132398 1.683667024e-15 0.9719876143)
(-0.1835781345 4.858789107e-15 0.8177662236 -1.106628124e-15 -0.6824219197 -1.770604999e-14 2.509597142 1.419328304e-15 0.8930121)
(-0.1139450456 3.544804425e-15 0.8662651454 0 -0.6659662615 0 2.564754972 1.647695937e-15 0.8085962971)
(-0.03925192196 5.712915798e-15 0.9144591139 0 -0.648655523 0 2.615236403 -2.976721091e-19 0.7184191473)
(0.04081140558 5.164112687e-15 0.9619632482 0 -0.6304602673 0 2.660572439 1.864422495e-15 0.6221461448)
(0.1265553761 7.066315198e-15 1.00831444 -2.121966793e-15 -0.6113498586 -8.48786717e-15 2.70017083 2.317905957e-15 0.5194404024)
(0.2182777922 8.794537975e-15 1.052954451 0 -0.5912929259 0 2.733300976 1.274569273e-15 0.4099795585)
(0.3162393075 6.626453704e-15 1.095224055 0 -0.5702582995 0 2.759080064 1.280284863e-16 0.2934700355)
(0.4206482409 5.74849623e-15 1.134345298 0 -0.5482163507 0 2.776451475 1.592632704e-15 0.1696771926)
(0.531622418 3.919841899e-15 1.169418971 0 -0.5251401398 0 2.784172701 -5.010945065e-17 0.03845232667)
(0.6491461658 1.851660676e-15 1.199417775 0 -0.5010078434 0 2.780813377 -2.932676215e-16 -0.1002230953)
(0.7730361035 2.014518935e-15 1.223200742 0 -0.4758049664 0 2.764751403 -1.101833171e-15 -0.2461833519)
(0.9028809743 2.426781363e-15 1.23954542 0 -0.4495271114 0 2.734196746 -1.115682475e-15 -0.3990409525)
(1.037987883 1.975701004e-15 1.247166266 0 -0.4221834304 0 2.687222472 -1.079347922e-15 -0.558118784)
(1.177336453 1.79673235e-15 1.24477929 0 -0.3938000598 0 2.621834037 -5.896607034e-16 -0.7223955871)
(1.319530042 1.737538371e-15 1.231164257 0 -0.3644237052 0 2.536059311 -4.270147537e-16 -0.8904644638)
(1.462769296 1.550482894e-15 1.205230748 -1.030970444e-15 -0.3341252135 0 2.42806958 1.345621172e-16 -1.060499345)
(1.604864242 1.465661284e-15 1.166107893 -1.032923025e-15 -0.3030024441 0 2.296348331 -2.102657603e-16 -1.23026037)
(1.74326449 1.022335597e-15 1.113206591 -1.035481356e-15 -0.2711819449 0 2.139866347 -4.817767017e-16 -1.397130925)
(1.875154467 -5.147456597e-16 1.046271837 -5.19309907e-16 -0.2388196853 8.308958511e-15 1.958284177 -8.796116853e-16 -1.558207416)
(1.997599146 -1.860695966e-15 0.9654058703 -1.042315465e-15 -0.2060990594 0 1.752120619 -2.659508884e-16 -1.710434282)
(2.107727855 3.224982364e-15 0.8710296336 -1.046547913e-15 -0.1732271442 -4.186191654e-15 1.522871674 6.166404957e-16 -1.850785357)
(2.202862526 1.123165021e-15 0.7637771263 -5.256494433e-16 -0.1404281191 4.205195546e-15 1.273037642 -3.870212615e-16 -1.976422541)
(2.280456553 -2.650924476e-15 0.644418817 -2.641380426e-16 -0.1079373683 0 1.006088369 -4.436182651e-16 -2.08483641)
(2.338574968 -3.112187133e-15 0.513989404 -6.639332551e-16 -0.07599835688 0 0.7263252282 -2.944392782e-16 -2.173960136)
(2.377237148 -1.466069683e-16 0.3735123145 -8.013818621e-16 -0.04484591504 -4.274036598e-15 0.4381684202 7.249178367e-17 -2.24229536)
(2.394426724 3.302351473e-15 0.1499715001 -7.055924642e-16 -0.01467258733 0 0.1456478851 2.147330008e-16 -2.288661962)
(-0.7283360425 -1.939668974e-14 0.01812422915 2.490782373e-14 -1.209403015 0 0.09772407944 -3.607167489e-15 1.994512449)
(-0.9663393914 -2.186634177e-14 0.03013814532 2.431968499e-14 -1.047989792 0 0.2518457407 -8.127627803e-15 1.9910121)
(-0.955602879 5.664756146e-15 0.04619451264 2.399466512e-14 -0.9987198586 -9.597866049e-14 0.3964122657 1.826941375e-14 1.985878718)
(-0.9734391404 2.119302694e-14 0.06779185082 1.101271673e-14 -0.9916776004 0 0.5464327126 2.024401443e-14 1.977515795)
(-0.9659346619 4.162575864e-15 0.08924868113 0 -0.9867724945 -5.636334129e-14 0.6927670526 3.164018634e-14 1.966453105)
(-0.9559990563 -3.342613508e-15 0.112184473 5.926989147e-15 -0.9820491504 0 0.835220435 1.223180047e-14 1.952718468)
(-0.9442391005 9.593035049e-16 0.1369970011 5.156571071e-15 -0.9772770019 0 0.9738089569 5.117804249e-15 1.936282191)
(-0.9299783014 -4.489548964e-15 0.1637772291 4.595000639e-15 -0.9721572056 3.676000511e-14 1.108361794 -1.702253128e-15 1.917113097)
(-0.9133417757 -6.330282329e-15 0.1926468473 4.168623218e-15 -0.9665574079 0 1.238795457 3.359656657e-15 1.895161878)
(-0.8943701923 -1.355663883e-15 0.2236797188 3.834806123e-15 -0.9604166349 0 1.365091217 3.46583783e-15 1.870381225)
(-0.8730287227 1.696492448e-15 0.2569135647 1.783581383e-15 -0.9537005546 -2.853730212e-14 1.487272101 1.975377481e-14 1.842702765)
(-0.8492502969 -2.730456415e-15 0.2923550265 0 -0.94638643 0 1.605370301 6.874627256e-15 1.812044285)
(-0.8229647861 8.65999611e-17 0.3299720603 6.334168583e-15 -0.9384567488 0 1.719455729 4.726838781e-16 1.778330346)
(-0.79408689 2.155055616e-15 0.3697211809 0 -0.9298984808 0 1.829612254 3.611153486e-15 1.741460181)
(-0.7625160417 -2.662837606e-15 0.4115380197 5.770890389e-15 -0.920698837 0 1.935933646 5.033022159e-15 1.701335345)
(-0.7281423013 -1.311542315e-15 0.4553466252 2.774833328e-15 -0.9108461062 0 2.038532638 5.226503127e-15 1.657839725)
(-0.6908393185 7.876384414e-16 0.5010634479 5.359081488e-15 -0.9003278126 0 2.137516834 5.677668541e-15 1.610842403)
(-0.6504638973 2.356055892e-15 0.5486004507 5.193974667e-15 -0.8891309985 0 2.233005184 6.347584114e-15 1.560199956)
(-0.6068522022 3.200827334e-15 0.5978644586 2.525151918e-15 -0.8772410928 1.010060767e-14 2.325103391 6.682740608e-15 1.505740428)
(-0.5598172707 2.671639368e-15 0.6487589421 0 -0.8646420628 0 2.413913614 1.126355934e-14 1.447272413)
(-0.5091444412 1.123826402e-15 0.7011842836 0 -0.8513155369 0 2.499516485 9.72931073e-15 1.384572729)
(-0.4545869862 9.239438646e-16 0.7550339994 0 -0.8372407975 0 2.581971936 5.322472723e-15 1.317385539)
(-0.3958614029 5.433146883e-15 0.8101909732 -2.31717718e-15 -0.8223939692 -9.268708719e-15 2.661303577 5.176534304e-15 1.24541678)
(-0.3326460092 8.1853868e-15 0.8665207981 0 -0.8067479254 0 2.737495102 5.897032152e-15 1.16832729)
(-0.264574727 5.294441764e-15 0.9238658925 2.247723203e-15 -0.7902717472 8.990892813e-15 2.810472268 -1.74031445e-15 1.085732482)
(-0.1912341491 3.955456797e-15 0.982026533 0 -0.7729304596 0 2.880086646 3.758574666e-17 0.9971956386)
(-0.1121655065 5.729010997e-15 1.040762672 0 -0.7546846193 0 2.946104877 -3.586634954e-15 0.9022284784)
(-0.02686028207 6.331219177e-15 1.09976489 0 -0.7354903988 0 3.008180369 -2.621292854e-16 0.8002878933)
(0.06523897837 6.972221766e-15 1.158630795 0 -0.7152991348 0 3.065827739 -1.059731958e-15 0.6907835608)
(0.1647183111 8.76644513e-15 1.216851032 0 -0.6940575956 0 3.118399871 -3.758202144e-15 0.5730791298)
(0.2721904408 5.548169502e-15 1.273779437 0 -0.6717086879 0 3.165048226 -3.935756101e-16 0.4465119376)
(0.388276186 5.220336102e-15 1.328612678 2.115403311e-15 -0.648191702 1.692322649e-14 3.20468478 -1.083567304e-15 0.3104119083)
(0.5135618238 5.791313971e-15 1.380357106 0 -0.6234436945 0 3.235947237 6.633918516e-16 0.1641264106)
(0.6485603894 3.260621006e-15 1.427796457 0 -0.5974013435 0 3.257148215 3.745059285e-16 0.007077731531)
(0.7936521256 2.453023263e-15 1.469502198 2.094992345e-15 -0.5700033276 8.379969378e-15 3.266246828 -4.383813717e-16 -0.1611800856)
(0.9490087495 2.140798231e-15 1.503823052 0 -0.5411937329 0 3.260818645 -1.785749165e-16 -0.3408853689)
(1.114488525 2.521863537e-15 1.528878341 0 -0.5109262112 0 3.238037492 -3.3959105e-16 -0.5319658014)
(1.289525908 1.440992431e-15 1.542619432 1.045025672e-15 -0.4791697537 8.360205376e-15 3.194700447 -9.12838303e-16 -0.7339224578)
(1.47301502 3.808996974e-16 1.542888383 0 -0.4459148265 0 3.127292864 -7.833612807e-16 -0.9456907349)
(1.663166685 8.220787779e-16 1.527512224 0 -0.4111807274 0 3.032105696 -4.169823825e-15 -1.165520798)
(1.857408736 1.111498471e-15 1.494457096 0 -0.3750237464 0 2.905441748 -3.819107506e-16 -1.390860045)
(2.052317112 9.21182969e-16 1.441984865 0 -0.3375445678 0 2.743919413 8.627922238e-17 -1.618273113)
(2.243635236 -4.41901086e-16 1.368842348 -1.054794201e-15 -0.2988952926 0 2.544852025 2.093827877e-16 -1.843456428)
(2.426434881 -2.657739623e-15 1.274441554 -1.058547403e-15 -0.259283164 0 2.306710363 -2.068621893e-16 -2.061377599)
(2.595408612 4.094654823e-16 1.158907659 -1.062845764e-15 -0.2189703211 -4.251383056e-15 2.029579578 -7.202071561e-16 -2.266539993)
(2.745168216 2.678039311e-15 1.023002247 -1.067670724e-15 -0.1782679232 0 1.715539869 6.915953414e-16 -2.453392999)
(2.870433022 7.052079245e-16 0.8680484739 -1.073005817e-15 -0.1375279641 0 1.36893207 -1.964864359e-15 -2.616789444)
(2.967448402 -6.900759278e-17 0.6960444648 -8.091271947e-16 -0.09713408469 0 0.9962784761 -1.223402046e-15 -2.752451579)
(3.035890662 -1.821386569e-16 0.5088896702 -8.138617512e-16 -0.05745957978 0 0.6048631479 -2.774132271e-15 -2.857351619)
(3.068669159 4.652921028e-17 0.2052160546 -7.165806286e-16 -0.01881791366 0 0.2017431 -1.016911704e-15 -2.929172445)
(-0.8257638859 -1.64097586e-14 0.02034108112 1.445470349e-14 -1.371908074 0 0.1075655854 -4.645220565e-15 2.260263427)
(-1.095642975 -2.363958403e-14 0.03407516956 1.975874629e-14 -1.188420094 0 0.2770564067 -1.102621635e-14 2.256373609)
(-1.08369558 -2.046560748e-15 0.0523078854 1.827626342e-14 -1.132488656 0 0.4360221814 -1.159338225e-14 2.250504984)
(-1.103940139 2.044616253e-15 0.07655052279 1.342107079e-14 -1.12457282 0 0.600989964 -1.077794334e-15 2.24102557)
(-1.095399512 6.369053728e-15 0.1005434713 1.431028199e-14 -1.118997556 0 0.7617390606 1.454820882e-14 2.228571186)
(-1.084315156 1.10863176e-14 0.1261132017 6.019294394e-15 -1.113658826 0 0.9181307531 4.76904995e-15 2.213179887)
(-1.071246801 3.157980657e-15 0.153675751 2.618439023e-15 -1.108290799 0 1.070161314 6.34053863e-15 2.194853348)
(-1.055471259 -4.044505531e-15 0.1833295352 4.666561874e-15 -1.102556549 0 1.217631312 8.554081363e-15 2.173597057)
(-1.037183359 -6.015436301e-15 0.2152043894 2.116772087e-15 -1.096312743 0 1.360465564 7.803629419e-15 2.149411602)
(-1.016470207 -4.506851603e-15 0.2493921026 3.894528305e-15 -1.089498926 0 1.498672975 9.135763157e-15 2.12228278)
(-0.9933166896 -1.09672089e-15 0.2859530063 7.245433491e-15 -1.082083851 0 1.632287912 9.484436395e-15 2.092168013)
(-0.9676880452 5.599094478e-15 0.3249004867 6.801272533e-15 -1.074047822 0 1.761382016 1.005481967e-14 2.059031411)
(-0.9395405943 1.023973502e-15 0.3662243597 0 -1.065379258 0 1.886075541 4.900421793e-15 2.022822679)
(-0.9088071095 -3.934728249e-15 0.4098975461 6.123346089e-15 -1.056069455 0 2.006495686 8.947918792e-15 1.98346975)
(-0.8754114014 -2.469648363e-15 0.4558756466 2.930382299e-15 -1.046110799 0 2.122809974 8.368799546e-15 1.940906526)
(-0.8392583406 -9.521919306e-16 0.5041114036 5.636095589e-15 -1.035496282 0 2.235192514 7.456537495e-15 1.895032994)
(-0.8002350303 -2.019693433e-16 0.5545495684 5.442542302e-15 -1.024217669 0 2.343841072 7.146246545e-15 1.845747304)
(-0.7582082672 -2.266543191e-16 0.6071393545 5.274864155e-15 -1.012265863 0 2.448956314 8.173206715e-15 1.792911573)
(-0.7130164496 -3.708976363e-15 0.6618335643 2.564477917e-15 -0.9996295725 -1.025791167e-14 2.550752039 9.572613977e-15 1.736373952)
(-0.6644704343 4.913638527e-15 0.7185854522 2.500778256e-15 -0.9862952029 -1.000311302e-14 2.649437536 9.894359329e-15 1.675935986)
(-0.6123436893 9.30970719e-15 0.7773583072 4.890043685e-15 -0.9722462039 0 2.74522002 8.05892518e-15 1.611373053)
(-0.5563674481 3.191736544e-15 0.8381173844 0 -0.9574624644 0 2.838294008 5.897565183e-15 1.542409872)
(-0.4962252316 2.449784843e-15 0.9008321846 0 -0.9419197547 0 2.928839 3.529098806e-15 1.468720224)
(-0.4315431027 1.382838995e-14 0.9654678657 -2.315661703e-15 -0.925589161 -9.262646812e-15 3.017004405 4.693280607e-15 1.389915208)
(-0.3618785464 1.190184378e-14 1.03197476 2.282728606e-15 -0.908436293 9.130914426e-15 3.102901392 3.212575126e-15 1.305537703)
(-0.2867204626 6.017882991e-15 1.100288596 0 -0.8904204792 0 3.186589698 1.553427545e-15 1.215048281)
(-0.2054729316 5.931419713e-15 1.17030769 0 -0.8714944896 8.915631246e-15 3.268056294 -8.530668582e-16 1.117816471)
(-0.1174407055 1.965804776e-15 1.241875497 0 -0.8516032465 0 3.34719102 -3.596774994e-16 1.013115959)
(-0.02183590833 1.17892307e-14 1.314758821 0 -0.8306832216 0 3.423764297 -4.323552571e-15 0.9001057333)
(0.08223604111 7.74023812e-15 1.388613312 2.17269842e-15 -0.8086621118 8.690793679e-15 3.497387798 -4.024586452e-16 0.7778308922)
(0.1957823728 2.996531154e-15 1.462950979 0 -0.7854579265 0 3.567461526 1.231065265e-15 0.6452208302)
(0.3199128241 4.183404215e-15 1.537110386 2.148348002e-15 -0.7609787853 8.593392009e-15 3.633128382 6.017364185e-17 0.5010855154)
(0.4558323221 1.901303975e-15 1.610191856 0 -0.7351229045 0 3.693200302 2.193073729e-15 0.344133058)
(0.6048021834 3.503004068e-15 1.680992962 0 -0.7077789312 0 3.746072177 2.330820519e-15 0.172997217)
(0.7680893214 2.827821951e-15 1.74797869 0 -0.6788276493 0 3.789632853 2.315889235e-15 -0.01371340275)
(0.9469020483 2.279940953e-15 1.809222667 0 -0.6481441423 0 3.821160557 1.861186832e-15 -0.2173265864)
(1.142260523 3.13638388e-15 1.862335786 0 -0.6156013407 0 3.837215648 1.726765966e-15 -0.4389963856)
(1.35482198 2.47705903e-15 1.904438644 0 -0.5810760135 0 3.833534133 1.602976449e-15 -0.6795339659)
(1.584673114 7.058382558e-15 1.932176792 0 -0.5444568658 0 3.804967486 1.032925943e-15 -0.9391722343)
(1.831045629 7.030035359e-16 1.94177718 2.126663577e-15 -0.5056550683 8.506654307e-15 3.745475024 4.368730443e-16 -1.217283093)
(2.091967739 -5.583701321e-15 1.929161881 0 -0.4646183073 0 3.648219242 3.655712792e-15 -1.512028904)
(2.363919353 1.877316143e-17 1.890198325 0 -0.4213478829 0 3.505836053 2.780453853e-16 -1.819988148)
(2.641538903 8.368916141e-18 1.821114764 0 -0.3759175442 0 3.310926171 3.567200207e-16 -2.135843882)
(2.9174907 -2.236152461e-16 1.718982626 0 -0.328492464 0 3.056837647 -3.751042706e-16 -2.452230804)
(3.182635466 1.511579151e-15 1.582225388 -1.079398222e-15 -0.2793445107 0 2.738727422 -5.049725983e-15 -2.759884432)
(3.426354413 3.539323389e-15 1.410971753 -1.084298325e-15 -0.2288593908 0 2.354876916 -4.155842082e-16 -3.04820437)
(3.637224145 8.981647755e-16 1.207228465 -5.448582524e-16 -0.1775378139 4.35886602e-15 1.908198516 -3.865467759e-16 -3.30621882)
(3.806692523 -1.460761169e-15 0.9750228766 -8.21728312e-16 -0.1259819779 0 1.407112921 -2.487453584e-15 -3.524089085)
(3.932392981 -6.360457454e-16 0.7183028096 -6.887805026e-16 -0.074803351 0 0.8633150714 -1.486823246e-15 -3.694653903)
(3.996702911 -1.816617047e-16 0.2911786453 -6.930861447e-16 -0.0245404897 0 0.2896859127 -1.110742625e-15 -3.812699243)
(-0.9308583487 -1.178399466e-14 0.02276713543 7.33990908e-15 -1.547364759 0 0.1174475308 -4.653498957e-15 2.547087298)
(-1.235113618 -1.711234435e-14 0.03847520482 1.504984879e-14 -1.339955829 0 0.3023387509 -1.634822378e-14 2.542743689)
(-1.221855601 -3.758097739e-15 0.05916680317 1.237392953e-14 -1.276811889 0 0.4757568833 -3.511061132e-14 2.536002174)