/*--------------------------------*- C++ -*----------------------------------*\
  =========                 |
  \\      /  F ield         | OpenFOAM: The Open Source CFD Toolbox
   \\    /   O peration     | Website:  https://openfoam.org
    \\  /    A nd           | Version:  7
     \\/     M anipulation  |
\*---------------------------------------------------------------------------*/
FoamFile
{
    version     2.0;
    format      ascii;
    class       surfaceScalarField;
    location    "0.0006";
    object      phi;
}
// * * * * * * * * * * * * * * * * * * * * * * * * * * * * * * * * * * * * * //

dimensions      [1 0 -1 0 0 0 0];

internalField   nonuniform List<scalar> 
2259
(
-5.076867259e-13
4.898424759e-11
1.433116817e-10
-5.795953414e-13
4.956384293e-11
-2.272212233e-12
1.450042986e-10
-5.009276177e-12
2.350769952e-10
-8.718919922e-12
3.199565733e-10
-1.332828756e-11
3.998276684e-10
-1.87634726e-11
4.748679911e-10
-2.494951345e-11
5.452475617e-10
-3.181048059e-11
6.111306012e-10
-3.926961632e-11
6.726756673e-10
-4.724944121e-11
7.300360056e-10
-5.567172188e-11
7.833601308e-10
-6.445752182e-11
8.32792236e-10
-7.352752424e-11
8.784731188e-10
-8.280186609e-11
9.205405093e-10
-9.2200394e-11
9.591294185e-10
-1.016428891e-10
9.94372977e-10
-1.110488503e-10
1.026402145e-09
-1.203381361e-10
1.055346636e-09
-1.294304938e-10
1.081334454e-09
-1.382463054e-10
1.104492638e-09
-1.467061276e-10
1.124946845e-09
-1.547314115e-10
1.142821926e-09
-1.622441241e-10
1.158241485e-09
-1.691674692e-10
1.17132847e-09
-1.754256243e-10
1.182204692e-09
-1.809445147e-10
1.190991434e-09
-1.85651778e-10
1.197809078e-09
-1.894776044e-10
1.202777622e-09
-1.92355004e-10
1.206016487e-09
-1.942208096e-10
1.207644904e-09
-1.950163563e-10
1.207781919e-09
-1.94688649e-10
1.206546547e-09
-1.931914734e-10
1.204057742e-09
-1.90486747e-10
1.200434378e-09
-1.865459022e-10
1.195794966e-09
-1.813514638e-10
1.190257417e-09
-1.74898244e-10
1.183938145e-09
-1.671948952e-10
1.176951651e-09
-1.582645539e-10
1.169409046e-09
-1.481459476e-10
1.161417551e-09
-1.368931028e-10
1.153078691e-09
-1.245754322e-10
1.144487753e-09
-1.112764954e-10
1.135732356e-09
-9.709298268e-11
1.126892152e-09
-8.21326865e-11
1.118038004e-09
-6.651293572e-11
1.109232315e-09
-5.035825314e-11
1.100528879e-09
-3.37988809e-11
1.091973939e-09
-1.696798663e-11
1.083604933e-09
1.075450358e-09
-6.581141892e-13
5.022195712e-11
-2.580168386e-12
1.469263528e-10
-5.68841872e-12
2.381852456e-10
-9.90164002e-12
3.241697946e-10
-1.513769432e-11
4.050637227e-10
-2.131347745e-11
4.810437742e-10
-2.834492308e-11
5.522790073e-10
-3.61472364e-11
6.189329145e-10
-4.46350358e-11
6.811634667e-10
-5.37224391e-11
7.391234089e-10
-6.332297444e-11
7.929606662e-10
-7.334988871e-11
8.428191503e-10
-8.371617733e-11
8.888394074e-10
-9.433445412e-11
9.31158786e-10
-1.051174236e-10
9.69912388e-10
-1.159775404e-10
1.005233094e-09
-1.268273909e-10
1.037251996e-09
-1.375795341e-10
1.06609878e-09
-1.481466517e-10
1.091901571e-09
-1.584415307e-10
1.114787517e-09
-1.683770678e-10
1.134882382e-09
-1.778663004e-10
1.152311158e-09
-1.868224161e-10
1.167197601e-09
-1.95158702e-10
1.179664756e-09
-2.027887545e-10
1.189834745e-09
-2.096264105e-10
1.19782909e-09
-2.155861201e-10
1.203768788e-09
-2.205830571e-10
1.207774559e-09
-2.24533679e-10
1.209967108e-09
-2.273562942e-10
1.210467519e-09
-2.289719029e-10
1.209397528e-09
-2.293052475e-10
1.206879892e-09
-2.282862611e-10
1.203038756e-09
-2.258515293e-10
1.197999646e-09
-2.219466505e-10
1.191890087e-09
-2.165279778e-10
1.184838744e-09
-2.09565461e-10
1.176975628e-09
-2.01044905e-10
1.168431095e-09
-1.909704427e-10
1.159334584e-09
-1.793668404e-10
1.149813948e-09
-1.662807777e-10
1.139992629e-09
-1.517820794e-10
1.129989055e-09
-1.359633249e-10
1.119913602e-09
-1.189390457e-10
1.109867872e-09
-1.008434536e-10
1.099942412e-09
-8.18277918e-11
1.090216653e-09
-6.205713096e-11
1.080758219e-09
-4.170704211e-11
1.07162385e-09
-2.095968661e-11
1.062857577e-09
1.054490671e-09
-7.431382145e-13
5.096509534e-11
-2.913636659e-12
1.490968513e-10
-6.42376462e-12
2.416953735e-10
-1.118211846e-11
3.289281484e-10
-1.70964838e-11
4.10978088e-10
-2.407374661e-11
4.88021037e-10
-3.202004396e-11
5.602253046e-10
-4.084107959e-11
6.277539501e-10
-5.044228277e-11
6.907646699e-10
-6.07288113e-11
7.494099374e-10
-7.160573182e-11
8.038375867e-10
-8.29782387e-11
8.541916572e-10
-9.475145522e-11
9.006126239e-10
-1.068307423e-10
9.432380731e-10
-1.191216791e-10
9.822033248e-10
-1.315299358e-10
1.017641351e-09
-1.43961606e-10
1.049683666e-09
-1.563227197e-10
1.078459893e-09
-1.685197e-10
1.104098551e-09
-1.804587408e-10
1.126726558e-09
-1.920461758e-10
1.146469817e-09
-2.031878765e-10
1.163452859e-09
-2.13789431e-10
1.177799155e-09
-2.237556507e-10
1.189630975e-09
-2.329905672e-10
1.199069661e-09
-2.41397218e-10
1.206235741e-09
-2.488774494e-10
1.211249019e-09
-2.553318868e-10
1.214228996e-09
-2.606600806e-10
1.215295302e-09
-2.647606488e-10
1.214568088e-09
-2.67531836e-10
1.212168715e-09
-2.688724138e-10
1.20822047e-09
-2.686825576e-10
1.2028489e-09
-2.66866008e-10
1.196183097e-09
-2.633319527e-10
1.188356032e-09
-2.57997913e-10
1.179504704e-09
-2.50793414e-10
1.169771129e-09
-2.416637567e-10
1.159301438e-09
-2.305747077e-10
1.148245535e-09
-2.175170033e-10
1.136756244e-09
-2.025110476e-10
1.124986673e-09
-1.856104702e-10
1.113088478e-09
-1.669051729e-10
1.101208305e-09
-1.465216911e-10
1.089484391e-09
-1.246222637e-10
1.078042985e-09
-1.014011469e-10
1.066995536e-09
-7.707989205e-11
1.056436964e-09
-5.190087379e-11
1.046444832e-09
-2.612005965e-11
1.037076763e-09
1.028370612e-09
-8.344294268e-13
5.179952476e-11
-3.271675353e-12
1.515340972e-10
-7.213194967e-12
2.456368931e-10
-1.255656659e-11
3.3427152e-10
-1.919864738e-11
4.176201688e-10
-2.703551024e-11
4.958578999e-10
-3.596275137e-11
5.691525458e-10
-4.587585842e-11
6.376670572e-10
-5.667039361e-11
7.015592051e-10
-6.824210317e-11
7.60981647e-10
-8.048727332e-11
8.160827568e-10
-9.330267751e-11
8.670070614e-10
-1.065856034e-10
9.138955498e-10
-1.202342175e-10
9.568866871e-10
-1.341471618e-10
9.961162691e-10
-1.482239599e-10
1.031718149e-09
-1.623646141e-10
1.06382432e-09
-1.764698093e-10
1.092565088e-09
-1.904404635e-10
1.118069206e-09
-2.041778185e-10
1.140463913e-09
-2.175828903e-10
1.159874889e-09
-2.305564014e-10
1.17642637e-09
-2.429981456e-10
1.190240899e-09
-2.548067375e-10
1.201439567e-09
-2.658790117e-10
1.210141936e-09
-2.761095506e-10
1.21646628e-09
-2.853900371e-10
1.220529506e-09
-2.936089011e-10
1.22244786e-09
-3.006506118e-10
1.222337013e-09
-3.063953746e-10
1.22031285e-09
-3.10719135e-10
1.216492476e-09
-3.134932785e-10
1.210994613e-09
-3.145853556e-10
1.203940977e-09
-3.138601389e-10
1.19545788e-09
-3.11181204e-10
1.185677097e-09
-3.064138742e-10
1.174737375e-09
-2.994288346e-10
1.16278609e-09
-2.901075161e-10
1.149980119e-09
-2.783486131e-10
1.136486632e-09
-2.640758908e-10
1.122483522e-09
-2.472475078e-10
1.10815829e-09
-2.278654818e-10
1.093706452e-09
-2.059848765e-10
1.079327699e-09
-1.817207805e-10
1.065220295e-09
-1.552522335e-10
1.051574438e-09
-1.268207699e-10
1.038564072e-09
-9.672416805e-11
1.026340362e-09
-6.530491338e-11
1.015025577e-09
-3.293458578e-11
1.004706435e-09
9.954360258e-10
-9.316094745e-13
5.273113424e-11
-3.652786833e-12
1.542552745e-10
-8.053362498e-12
2.500374688e-10
-1.401902412e-11
3.402371817e-10
-2.143484729e-11
4.25035992e-10
-3.018525279e-11
5.046083054e-10
-4.015443992e-11
5.791217329e-10
-5.122689749e-11
6.487395147e-10
-6.328760949e-11
7.136199171e-10
-7.622243964e-11
7.739164771e-10
-8.991837656e-11
8.297786937e-10
-1.042634322e-10
8.813521171e-10
-1.191470861e-10
9.287792037e-10
-1.344601088e-10
9.721997099e-10
-1.500946753e-10
1.011750836e-09
-1.659443812e-10
1.047567855e-09
-1.819040184e-10
1.079783958e-09
-1.978696107e-10
1.108530681e-09
-2.137380085e-10
1.133937603e-09
-2.294067072e-10
1.156132612e-09
-2.447734566e-10
1.175241638e-09
-2.597357262e-10
1.19138864e-09
-2.741902085e-10
1.204695382e-09
-2.880321314e-10
1.21528149e-09
-3.011544879e-10
1.223264292e-09
-3.134470544e-10
1.228758846e-09
-3.247956502e-10
1.231878102e-09
-3.350807674e-10
1.232732977e-09
-3.441764595e-10
1.231432705e-09
-3.519493596e-10
1.228085751e-09
-3.582571808e-10
1.222800297e-09
-3.629476497e-10
1.215685082e-09
-3.658576841e-10
1.206851012e-09
-3.668126764e-10
1.196412872e-09
-3.656268012e-10
1.184491222e-09
-3.621040331e-10
1.171214607e-09
-3.56040534e-10
1.156722591e-09
-3.472292457e-10
1.141168831e-09
-3.354668939e-10
1.12472428e-09
-3.20564004e-10
1.107580632e-09
-3.023589517e-10
1.089953238e-09
-2.807355284e-10
1.072083028e-09
-2.55643377e-10
1.054235548e-09
-2.271199872e-10
1.036696905e-09
-1.953099292e-10
1.01976438e-09
-1.604775409e-10
1.003731684e-09
-1.230081111e-10
9.888709321e-10
-8.339140694e-11
9.75408873e-10
-4.218804261e-11
9.63503071e-10
9.532479832e-10
-1.034162268e-12
5.376529651e-11
-4.054930904e-12
1.572760432e-10
-8.939751023e-12
2.549222889e-10
-1.556151653e-11
3.468589472e-10
-2.379265323e-11
4.332671287e-10
-3.350498559e-11
5.143206378e-10
-4.457042936e-11
5.901871767e-10
-5.686156629e-11
6.610306516e-10
-7.025212808e-11
7.27010479e-10
-8.46174422e-11
7.882817912e-10
-9.983451542e-11
8.449957669e-10
-1.15782348e-10
8.972999497e-10
-1.32342235e-10
9.453390906e-10
-1.493974928e-10
9.892549676e-10
-1.668339769e-10
1.02918732e-09
-1.84539552e-10
1.06527343e-09
-2.024044453e-10
1.097648851e-09
-2.203206858e-10
1.126446921e-09
-2.381821753e-10
1.151799093e-09
-2.558840615e-10
1.173834498e-09
-2.73322465e-10
1.192680042e-09
-2.903938533e-10
1.208460028e-09
-3.069944e-10
1.221295929e-09
-3.230191175e-10
1.231306208e-09
-3.383608887e-10
1.238606063e-09
-3.529094309e-10
1.243307388e-09
-3.665497566e-10
1.245518428e-09
-3.791606944e-10
1.245343915e-09
-3.906131758e-10
1.242885186e-09
-4.00768136e-10
1.238240711e-09
-4.094740328e-10
1.231506193e-09
-4.165644394e-10
1.222775489e-09
-4.218552104e-10
1.212141783e-09
-4.251414735e-10
1.199699135e-09
-4.261948879e-10
1.185544636e-09
-4.247612119e-10
1.169780931e-09
-4.205587131e-10
1.152520092e-09
-4.132782565e-10
1.133888374e-09
-4.025864053e-10
1.114032429e-09
-3.881326854e-10
1.093126912e-09
-3.695632467e-10
1.071383799e-09
-3.465428495e-10
1.049062631e-09
-3.187874321e-10
1.026480131e-09
-2.861077742e-10
1.004017247e-09
-2.484628031e-10
9.821194089e-10
-2.060170304e-10
9.612859114e-10
-1.591856865e-10
9.420395882e-10
-1.086393594e-10
9.248625459e-10
-5.524885554e-11
9.101125671e-10
8.979991277e-10
-1.141425455e-12
5.490672196e-11
-4.475546758e-12
1.606101645e-10
-9.866787262e-12
2.603135294e-10
-1.717426642e-11
3.541664263e-10
-2.62568382e-11
4.423497005e-10
-3.697277751e-11
5.250365771e-10
-4.918071765e-11
6.023951168e-10
-6.274046947e-11
6.745904034e-10
-7.751369343e-11
7.41783703e-10
-9.336429402e-11
8.041323918e-10
-1.101586603e-10
8.617901331e-10
-1.277662872e-10
9.149075766e-10
-1.460596397e-10
9.636324432e-10
-1.649145517e-10
1.00810988e-09
-1.842101098e-10
1.048482878e-09
-2.038287827e-10
1.084892103e-09
-2.236561471e-10
1.117476215e-09
-2.435809401e-10
1.146371714e-09
-2.634945807e-10
1.171712733e-09
-2.832909284e-10
1.193630846e-09
-3.028657538e-10
1.212254867e-09
-3.221162032e-10
1.227710477e-09
-3.409400187e-10
1.240119744e-09
-3.592347751e-10
1.249600964e-09
-3.768967849e-10
1.256268073e-09
-3.938197546e-10
1.260230358e-09
-4.098933515e-10
1.261592025e-09
-4.250014704e-10
1.260452034e-09
-4.390200194e-10
1.256903735e-09
-4.518141907e-10
1.251034882e-09
-4.632354411e-10
1.242927444e-09
-4.731177351e-10
1.232657783e-09
-4.812729562e-10
1.220297004e-09
-4.874856299e-10
1.205911809e-09
-4.915065422e-10
1.189565548e-09
-4.930456889e-10
1.171320077e-09
-4.917643474e-10
1.15123875e-09
-4.872667936e-10
1.12939082e-09
-4.79092894e-10
1.105858529e-09
-4.667128211e-10
1.080746839e-09
-4.49527162e-10
1.05419814e-09
-4.26877054e-10
1.026412523e-09
-3.980718525e-10
9.976749291e-10
-3.624438304e-10
9.683892248e-10
-3.194407155e-10
9.391162941e-10
-2.687609188e-10
9.106061146e-10
-2.105164126e-10
8.837950821e-10
-1.453738357e-10
8.59719969e-10
-7.461156263e-11
8.39350294e-10
8.23387565e-10
-1.252655454e-12
5.615937741e-11
-4.911719205e-12
1.642692282e-10
-1.082816728e-11
2.662299775e-10
-1.884619651e-11
3.621844555e-10
-2.881016244e-11
4.523136664e-10
-4.056380562e-11
5.367902202e-10
-5.395146369e-11
6.157827749e-10
-6.881924037e-11
6.894581801e-10
-8.501570153e-11
7.579801642e-10
-1.023923143e-10
8.215090046e-10
-1.208041636e-10
8.802019824e-10
-1.401102663e-10
9.342136793e-10
-1.601737254e-10
9.836959023e-10
-1.808621836e-10
1.028798338e-09
-2.020476105e-10
1.069668305e-09
-2.236066077e-10
1.1064511e-09
-2.454200775e-10
1.139289685e-09
-2.673731938e-10
1.16832483e-09
-2.893551335e-10
1.193694673e-09
-3.112586722e-10
1.215534384e-09
-3.329797769e-10
1.233975972e-09
-3.544169345e-10
1.249147635e-09
-3.754707154e-10
1.261173525e-09
-3.960427021e-10
1.270172951e-09
-4.160345393e-10
1.27625991e-09
-4.353468026e-10
1.279542622e-09
-4.538775843e-10
1.280122806e-09
-4.715206795e-10
1.278095129e-09
-4.881634393e-10
1.273546495e-09
-5.036840835e-10
1.266555526e-09
-5.179485078e-10
1.257191868e-09
-5.308060313e-10
1.245515306e-09
-5.420841235e-10
1.231575096e-09
-5.515818474e-10
1.215409533e-09
-5.590611836e-10
1.197044885e-09
-5.642361149e-10
1.176495009e-09
-5.667589076e-10
1.153761543e-09
-5.662025218e-10
1.128834434e-09
-5.620391459e-10
1.101695153e-09
-5.536144645e-10
1.072322157e-09
-5.401192255e-10
1.040702901e-09
-5.205613421e-10
1.00685464e-09
-4.937470277e-10
9.708606146e-10
-4.582849795e-10
9.329271765e-10
-4.126368585e-10
8.934681732e-10
-3.552545807e-10
8.532238368e-10
-2.848746909e-10
8.134151923e-10
-2.010454757e-10
7.758907538e-10
-1.048790603e-10
7.431838786e-10
7.185085047e-10
-1.367035874e-12
5.752641329e-11
-5.360146746e-12
1.682623391e-10
-1.181678231e-11
2.726866131e-10
-2.056459243e-11
3.709322657e-10
-3.143256208e-11
4.63181636e-10
-4.424883793e-11
5.496064961e-10
-5.884234566e-11
6.303762826e-10
-7.5044276e-11
7.056601104e-10
-9.268882382e-11
7.75624712e-10
-1.116139807e-10
8.404341615e-10
-1.316623943e-10
9.002503959e-10
-1.526814924e-10
9.552327774e-10
-1.745242295e-10
1.005538639e-09
-1.970489672e-10
1.051323075e-09
-2.201199537e-10
1.092739291e-09
-2.436070389e-10
1.129938185e-09
-2.67385843e-10
1.163068489e-09
-2.913374055e-10
1.192276393e-09
-3.153480696e-10
1.217705337e-09
-3.393090182e-10
1.239495333e-09
-3.631159089e-10
1.257782863e-09
-3.866683791e-10
1.272700105e-09
-4.098692662e-10
1.284374412e-09
-4.326239049e-10
1.29292759e-09
-4.548393263e-10
1.298475331e-09
-4.764232015e-10
1.301126497e-09
-4.972825564e-10
1.300982161e-09
-5.17322281e-10
1.298134854e-09
-5.364433557e-10
1.29266757e-09
-5.545406392e-10
1.28465281e-09
-5.715001459e-10
1.274151375e-09
-5.871953459e-10
1.261210506e-09
-6.014826684e-10
1.245862419e-09
-6.141955381e-10
1.228122403e-09
-6.2513605e-10
1.207985396e-09
-6.340643083e-10
1.185423267e-09
-6.406829936e-10
1.160380228e-09
-6.446164917e-10
1.132767932e-09
-6.453813839e-10
1.102460045e-09
-6.423451527e-10
1.069285926e-09
-6.34668147e-10
1.033025895e-09
-6.212228212e-10
9.934093142e-10
-6.004828052e-10
9.501205986e-10
-5.703765508e-10
9.028209221e-10
-5.281134994e-10
8.51205122e-10
-4.700425477e-10
7.951528851e-10
-3.917148453e-10
7.350874899e-10
-2.88483306e-10
6.726592145e-10
-1.57307707e-10
6.120082795e-10
5.612007978e-10
-1.483122739e-12
5.900953603e-11
-5.816809872e-12
1.725960262e-10
-1.28236111e-11
2.796934143e-10
-2.23134231e-11
3.804220777e-10
-3.409902816e-11
4.749672411e-10
-4.799190407e-11
5.63499372e-10
-6.380436107e-11
6.461887396e-10
-8.135141965e-11
7.232071689e-10
-1.004517399e-10
7.947250324e-10
-1.209288595e-10
8.60911281e-10
-1.426117437e-10
9.219332801e-10
-1.653354748e-10
9.779565086e-10
-1.889417129e-10
1.029144877e-09
-2.13278935e-10
1.075660297e-09
-2.382025255e-10
1.117662882e-09
-2.635749422e-10
1.155310602e-09
-2.892654833e-10
1.18875903e-09
-3.15150115e-10
1.218161025e-09
-3.411111872e-10
1.243666409e-09
-3.670370708e-10
1.265421217e-09
-3.928216433e-10
1.283567435e-09
-4.183637179e-10
1.298242179e-09
-4.43566364e-10
1.309577058e-09
-4.683362943e-10
1.31769752e-09
-4.925829498e-10
1.322721987e-09
-5.162175521e-10
1.324761099e-09
-5.391519897e-10
1.323916599e-09
-5.61297574e-10
1.320280438e-09
-5.825634921e-10
1.313933488e-09
-6.028552343e-10
1.304944552e-09
-6.220720225e-10
1.293368163e-09
-6.401043841e-10
1.279242868e-09
-6.568307008e-10
1.262588736e-09
-6.721125127e-10
1.243404215e-09
-6.85788609e-10
1.221661492e-09
-6.976668197e-10
1.197301478e-09
-7.075121139e-10
1.170225523e-09
-7.150300099e-10
1.140285828e-09
-7.198412732e-10
1.107271309e-09
-7.214438392e-10
1.070888492e-09
-7.191535065e-10
1.030735562e-09
-7.120104636e-10
9.862662712e-10
-6.986304265e-10
9.367405615e-10
-6.769695466e-10
8.811600422e-10
-6.439569048e-10
8.181924803e-10
-5.949120869e-10
7.461080672e-10
-5.22565267e-10
6.6274067e-10
-4.152458824e-10
5.653398299e-10
-2.527218807e-10
4.494842778e-10
3.084789171e-10
-7.454358141e-14
5.908407961e-11
-2.945294351e-13
1.72816012e-10
-6.340755799e-13
2.800329604e-10
-1.068093404e-12
3.808560955e-10
-1.564058634e-12
4.754632063e-10
-2.08819457e-12
5.64023508e-10
-2.60604922e-12
6.467065943e-10
-3.083658932e-12
7.236847785e-10
-3.488929336e-12
7.951303026e-10
-3.792678763e-12
8.612150305e-10
-3.969056e-12
9.221096574e-10
-3.996475302e-12
9.779839279e-10
-3.85754337e-12
1.029005946e-09
-3.539717383e-12
1.075342471e-09
-3.034901731e-12
1.117158066e-09
-2.339749952e-12
1.15461545e-09
-1.455431047e-12
1.187874712e-09
-3.87377919e-13
1.217092972e-09
8.548751483e-13
1.242424155e-09
2.257910841e-12
1.264018181e-09
3.804696285e-12
1.28202065e-09
5.474833106e-12
1.296572042e-09
7.244702029e-12
1.307807189e-09
9.087720799e-12
1.315854501e-09
1.097434388e-11
1.320835363e-09
1.287226748e-11
1.322863175e-09
1.474626811e-11
1.322042599e-09
1.655820181e-11
1.318468504e-09
1.826693093e-11
1.312224758e-09
1.982785784e-11
1.303383625e-09
2.119279965e-11
1.29200322e-09
2.230904913e-11
1.278126618e-09
2.311882973e-11
1.261778955e-09
2.355808453e-11
1.24296496e-09
2.3554869e-11
1.221664708e-09
2.30273702e-11
1.197828977e-09
2.188043655e-11
1.171372457e-09
2.0001734e-11
1.14216453e-09
1.725645633e-11
1.110016586e-09
1.348080848e-11
1.07466414e-09
8.475336528e-12
1.035741034e-09
2.000961585e-12
9.92740646e-10
-6.216290372e-12
9.449578133e-10
-1.645449772e-11
8.913982495e-10
-2.889372591e-11
8.306317084e-10
-4.332042656e-11
7.605347678e-10
-5.837571677e-11
6.777959603e-10
-6.980391967e-11
5.767680329e-10
-6.581887766e-11
4.454992359e-10
2.426600394e-10
-1.439381044e-13
5.922801771e-11
-5.638440684e-13
1.73235918e-10
-1.226329278e-12
2.806954456e-10
-2.09680308e-12
3.817265693e-10
-3.133798814e-12
4.765002022e-10
-4.294046424e-12
5.651837557e-10
-5.533692143e-12
6.479462399e-10
-6.809585041e-12
7.249606714e-10
-8.080795153e-12
7.964015127e-10
-9.309419624e-12
8.62443655e-10
-1.046145884e-11
9.232616965e-10
-1.15074086e-11
9.790298775e-10
-1.242257818e-11
1.029921115e-09
-1.318726403e-11
1.076107157e-09
-1.378697311e-11
1.117757775e-09
-1.421206508e-11
1.155040542e-09
-1.445777421e-11
1.188120421e-09
-1.452404374e-11
1.217159241e-09
-1.441496517e-11
1.242315077e-09
-1.41387627e-11
1.263741978e-09
-1.370726565e-11
1.281589152e-09
-1.313568687e-11
1.296000463e-09
-1.244230142e-11
1.307113803e-09
-1.164826377e-11
1.315060463e-09
-1.077722063e-11
1.31996432e-09
-9.855197855e-12
1.321941153e-09
-8.910541946e-12
1.321097943e-09
-7.973824376e-12
1.317531787e-09
-7.077766469e-12
1.311328701e-09
-6.257185873e-12
1.302563044e-09
-5.549184323e-12
1.291295219e-09
-4.99335412e-12
1.277570788e-09
-4.631637989e-12
1.261417239e-09
-4.508564229e-12
1.242841886e-09
-4.671344311e-12
1.221827488e-09
-5.169784309e-12
1.198327417e-09
-6.056106113e-12
1.172258778e-09
-7.384370009e-12
1.143492794e-09
-9.209577411e-12
1.111841794e-09
-1.158575535e-11
1.077040318e-09
-1.456310291e-11
1.038718382e-09
-1.818211413e-11
9.963596573e-10
-2.246214545e-11
9.492378446e-10
-2.737478513e-11
8.963108892e-10
-3.278026245e-11
8.360371858e-10
-3.827463298e-11
7.660291383e-10
-4.27898666e-11
6.823111938e-10
-4.338971949e-11
5.773678857e-10
-3.203577709e-11
4.341452934e-10
2.106242623e-10
-2.104005548e-13
5.943841827e-11
-8.227222849e-13
1.738482397e-10
-1.796324921e-12
2.816690483e-10
-3.086727511e-12
3.83016972e-10
-4.643548043e-12
4.780570227e-10
-6.414175986e-12
5.669543836e-10
-8.345315565e-12
6.498773796e-10
-1.038464312e-11
7.269999991e-10
-1.248224993e-11
7.984991199e-10
-1.459146939e-11
8.645528747e-10
-1.667006634e-11
9.253402935e-10
-1.868047267e-11
9.810402839e-10
-2.059056208e-11
1.031831205e-09
-2.237344814e-11
1.077890043e-09
-2.400784596e-11
1.119392173e-09
-2.547783825e-11
1.156510534e-09
-2.677256626e-11
1.189415149e-09
-2.788607947e-11
1.218272754e-09
-2.881697901e-11
1.243245976e-09
-2.956803327e-11
1.264493033e-09
-3.014570917e-11
1.282166829e-09
-3.055989163e-11
1.296414646e-09
-3.082345816e-11
1.30737737e-09
-3.095203264e-11
1.315189037e-09
-3.096358274e-11
1.31997587e-09
-3.087827839e-11
1.321855848e-09
-3.071814743e-11
1.320937812e-09
-3.05072388e-11
1.317320878e-09
-3.027130004e-11
1.311092762e-09
-3.003781439e-11
1.302329559e-09
-2.983606427e-11
1.291093469e-09
-2.969729398e-11
1.277432018e-09
-2.965478254e-11
1.261374728e-09
-2.974372239e-11
1.242930827e-09
-3.000160451e-11
1.22208537e-09
-3.046800873e-11
1.198793821e-09
-3.118396319e-11
1.172974733e-09
-3.219085294e-11
1.144499684e-09
-3.352779961e-11
1.113178741e-09
-3.522647284e-11
1.078738991e-09
-3.7301012e-11
1.040792921e-09
-3.973009635e-11
9.987887418e-10
-4.24239257e-11
9.519316741e-10
-4.516487614e-11
8.990518396e-10
-4.750187439e-11
8.38374184e-10
-4.855909387e-11
7.670863578e-10
-4.667868018e-11
6.8043078e-10
-3.892386419e-11
5.696130696e-10
-2.184753262e-11
4.170689618e-10
1.887767297e-10
-2.733078674e-13
5.971172615e-11
-1.068398152e-12
1.746433301e-10
-2.337097525e-12
2.829377477e-10
-4.025576944e-12
3.847054513e-10
-6.074450383e-12
4.80105896e-10
-8.421777989e-12
5.693017112e-10
-1.100486086e-11
6.524604625e-10
-1.376210374e-11
7.297572418e-10
-1.663432974e-11
8.013713457e-10
-1.956596798e-11
8.674845128e-10
-2.250608699e-11
9.282804125e-10
-2.540880683e-11
9.839430039e-10
-2.823391923e-11
1.034656317e-09
-3.094697973e-11
1.080603104e-09
-3.351928334e-11
1.121964477e-09
-3.592783795e-11
1.158919089e-09
-3.815512599e-11
1.191642437e-09
-4.01886211e-11
1.22030625e-09
-4.202058311e-11
1.245077939e-09
-4.364748736e-11
1.266119937e-09
-4.506967164e-11
1.283589013e-09
-4.629086957e-11
1.297635844e-09
-4.731783229e-11
1.308404333e-09
-4.815981858e-11
1.316031024e-09
-4.882840126e-11
1.320644453e-09
-4.933727936e-11
1.322364726e-09
-4.97018064e-11
1.321302339e-09
-4.993893968e-11
1.317558012e-09
-5.006733752e-11
1.31122116e-09
-5.010707231e-11
1.302369293e-09
-5.007973737e-11
1.291066134e-09
-5.000844854e-11
1.277360729e-09
-4.991794242e-11
1.261284221e-09
-4.983448155e-11
1.242847366e-09
-4.978572825e-11
1.222036617e-09
-4.980026825e-11
1.198808361e-09
-4.990669384e-11
1.173081158e-09
-5.013192946e-11
1.14472492e-09
-5.049748073e-11
1.113544292e-09
-5.101331749e-11
1.079254827e-09
-5.166579388e-11
1.041445397e-09
-5.239677376e-11
9.995197215e-10
-5.306602284e-11
9.526009231e-10
-5.338679464e-11
8.993726114e-10
-5.281818835e-11
8.378055777e-10
-5.039812855e-11
7.64666298e-10
-4.455934304e-11
6.745919947e-10
-3.329634739e-11
5.583500741e-10
-1.606370572e-11
3.998363201e-10
1.72713024e-10
-3.321320449e-13
6.00438582e-11
-1.298547388e-12
1.756097454e-10
-2.843560267e-12
2.844827605e-10
-4.904600925e-12
3.86766492e-10
-7.413452415e-12
4.826147475e-10
-1.029905331e-11
5.721873119e-10
-1.348955022e-11
6.556509593e-10
-1.691415813e-11
7.331818498e-10
-2.050451874e-11
8.049617063e-10
-2.419624507e-11
8.711762391e-10
-2.792956896e-11
9.320137364e-10
-3.165033877e-11
9.876637737e-10
-3.531008273e-11
1.038316061e-09
-3.88666128e-11
1.084159634e-09
-4.228376427e-11
1.125381628e-09
-4.55312939e-11
1.162166619e-09
-4.85846907e-11
1.194695834e-09
-5.142484534e-11
1.223146405e-09
-5.403753318e-11
1.247690626e-09
-5.641293958e-11
1.268495343e-09
-5.854530451e-11
1.285721378e-09
-6.043239446e-11
1.299522934e-09
-6.207508087e-11
1.31004702e-09
-6.347690601e-11
1.31743285e-09
-6.46437964e-11
1.321811344e-09
-6.558374857e-11
1.323304679e-09
-6.630675755e-11
1.322025348e-09
-6.682432439e-11
1.318075578e-09
-6.714987297e-11
1.311546708e-09
-6.729823697e-11
1.302517657e-09
-6.728599263e-11
1.29105389e-09
-6.713104236e-11
1.277205779e-09
-6.685283574e-11
1.261006015e-09
-6.647214954e-11
1.242466679e-09
-6.601045547e-11
1.221574923e-09
-6.548913023e-11
1.198287036e-09
-6.492791138e-11
1.172519939e-09
-6.434205612e-11
1.144139064e-09
-6.373772859e-11
1.112939964e-09
-6.31037376e-11
1.078620837e-09
-6.239769437e-11
1.040739354e-09
-6.152235927e-11
9.986443864e-10
-6.028749075e-11
9.513660545e-10
-5.835076505e-11
8.974358857e-10
-5.5137335e-11
8.345921476e-10
-4.976236972e-11
7.592913328e-10
-4.107151335e-11
6.659011382e-10
-2.815558414e-11
5.454341448e-10
-1.213214498e-11
3.838128809e-10
1.60580879e-10
-3.863979597e-13
6.043025615e-11
-1.511070654e-12
1.767344181e-10
-3.311095342e-12
2.862827852e-10
-5.715794665e-12
3.891711913e-10
-8.648485609e-12
4.855474384e-10
-1.202941918e-11
5.755682455e-10
-1.577794938e-11
6.593994896e-10
-1.981434152e-11
7.37218242e-10
-2.406145144e-11
8.092088163e-10
-2.844622876e-11
8.755610166e-10
-3.290040045e-11
9.364679082e-10
-3.736156773e-11
9.92124941e-10
-4.177339649e-11
1.04272789e-09
-4.608589621e-11
1.088472134e-09
-5.025558562e-11
1.129551318e-09
-5.424520322e-11
1.166156236e-09
-5.80234963e-11
1.198474127e-09
-6.156484462e-11
1.226687753e-09
-6.484881263e-11
1.250974595e-09
-6.785971241e-11
1.271506243e-09
-7.05861062e-11
1.288447772e-09
-7.302031259e-11
1.30195714e-09
-7.515795524e-11
1.312184662e-09
-7.699767198e-11
1.319272566e-09
-7.854074023e-11
1.323354412e-09
-7.979057645e-11
1.324554515e-09
-8.075297698e-11
1.322987749e-09
-8.143549747e-11
1.318758099e-09
-8.184769439e-11
1.311958905e-09
-8.20008648e-11
1.302670828e-09
-8.190802479e-11
1.29096105e-09
-8.158364809e-11
1.276881402e-09
-8.104361953e-11
1.260465986e-09
-8.030482778e-11
1.241727888e-09
-7.938438076e-11
1.220654476e-09
-7.829848812e-11
1.197201143e-09
-7.706049675e-11
1.171281948e-09
-7.567749667e-11
1.142756064e-09
-7.414493235e-11
1.1114074e-09
-7.243689548e-11
1.0769128e-09
-7.049118174e-11
1.03879364e-09
-6.818447854e-11
9.963376832e-10
-6.529607731e-11
9.484776534e-10
-6.146068207e-11
8.936004904e-10
-5.612497199e-11
8.292564374e-10
-4.855830571e-11
7.517246665e-10
-3.803889864e-11
6.553817311e-10
-2.445769089e-11
5.31852937e-10
-9.710139162e-12
3.690653292e-10
1.508707398e-10
-4.35673774e-13
6.086592993e-11
-1.704066353e-12
1.780028106e-10
-3.735528968e-12
2.883142479e-10
-6.451922589e-12
3.91887585e-10
-9.768707923e-12
4.888642239e-10
-1.359801816e-11
5.79397556e-10
-1.785088199e-11
6.636523535e-10
-2.243913605e-11
7.418064959e-10
-2.727741657e-11
8.140470966e-10
-3.228431781e-11
8.805679178e-10
-3.738369856e-11
9.415672889e-10
-4.25051474e-11
9.972463897e-10
-4.758489075e-11
1.047807633e-09
-5.256569148e-11
1.093452934e-09
-5.739702393e-11
1.13438265e-09
-6.203497539e-11
1.170794188e-09
-6.644204919e-11
1.202881201e-09
-7.058658508e-11
1.230832288e-09
-7.444249133e-11
1.254830501e-09
-7.798871773e-11
1.27505247e-09
-8.120882186e-11
1.291667876e-09
-8.409044521e-11
1.304838764e-09
-8.662485215e-11
1.314719069e-09
-8.880656598e-11
1.32145428e-09
-9.06331282e-11
1.325180974e-09
-9.210466483e-11
1.326026052e-09
-9.322368678e-11
1.324106771e-09
-9.399498688e-11
1.319529399e-09
-9.442545946e-11
1.312389378e-09
-9.452394148e-11
1.30276931e-09
-9.430103496e-11
1.290738143e-09
-9.376883127e-11
1.276349198e-09
-9.294069471e-11
1.25963785e-09
-9.183058907e-11
1.240617782e-09
-9.045218808e-11
1.219276075e-09
-8.881752201e-11
1.195566477e-09
-8.693454519e-11
1.169398971e-09
-8.480354608e-11
1.140625065e-09
-8.241060322e-11
1.109014457e-09
-7.971788578e-11
1.074220082e-09
-7.664766958e-11
1.035723424e-09
-7.305928019e-11
9.927492938e-10
-6.871820586e-11
9.44136579e-10
-6.326698142e-11
8.88149266e-10
-5.622118453e-11
8.222106405e-10
-4.704473127e-11
7.425482131e-10
-3.539778486e-11
6.437347847e-10
-2.16936719e-11
5.181488242e-10
-8.112217174e-12
3.554838745e-10
1.427585227e-10
-4.795620068e-13
6.134549196e-11
-1.875931455e-12
1.793991801e-10
-4.113369717e-12
2.905516861e-10
-7.107039898e-12
3.948812551e-10
-1.076530716e-11
4.925224911e-10
-1.499287457e-11
5.836251232e-10
-1.969310326e-11
6.68352582e-10
-2.477020161e-11
7.468835944e-10
-3.013119859e-11
8.194080937e-10
-3.568707044e-11
8.861237895e-10
-4.135430468e-11
9.47234523e-10
-4.705536252e-11
1.002947448e-09
-5.271937717e-11
1.053471648e-09
-5.828253886e-11
1.099016096e-09
-6.368795918e-11
1.13978807e-09
-6.888571007e-11
1.175991939e-09
-7.383247161e-11
1.207827963e-09
-7.849127499e-11
1.235491092e-09
-8.283100424e-11
1.25917023e-09
-8.682596095e-11
1.279047426e-09
-9.045535722e-11
1.295297272e-09
-9.370278269e-11
1.308086189e-09
-9.655598004e-11
1.317572266e-09
-9.900619936e-11
1.323904499e-09
-1.010479114e-10
1.327222686e-09
-1.026786759e-10
1.327656816e-09
-1.038985656e-10
1.32532666e-09
-1.047102701e-10
1.320341104e-09
-1.051187277e-10
1.312797835e-09
-1.051308767e-10
1.302781459e-09
-1.047554912e-10
1.290362758e-09
-1.040029157e-10
1.275596623e-09
-1.028844836e-10
1.258519417e-09
-1.014118263e-10
1.239145125e-09
-9.959591564e-11
1.217460164e-09
-9.744535877e-11
1.193415921e-09
-9.496387095e-11
1.166917484e-09
-9.214603167e-11
1.137807226e-09
-8.897053348e-11
1.105838959e-09
-8.539025398e-11
1.070639803e-09
-8.131645018e-11
1.03164962e-09
-7.659859637e-11
9.880314398e-10
-7.100237999e-11
9.385403625e-10
-6.419993626e-11
8.813468222e-10
-5.579940494e-11
8.138101093e-10
-4.545825557e-11
7.322070638e-10
-3.313939127e-11
6.314159204e-10
-1.957658084e-11
5.045860136e-10
-6.996913592e-12
3.429042073e-10
1.357616091e-10
-5.177379217e-13
6.186322988e-11
-2.025404413e-12
1.809068466e-10
-4.441922558e-12
2.929682043e-10