/*--------------------------------*- C++ -*----------------------------------*\
  =========                 |
  \\      /  F ield         | OpenFOAM: The Open Source CFD Toolbox
   \\    /   O peration     | Website:  https://openfoam.org
    \\  /    A nd           | Version:  7
     \\/     M anipulation  |
\*---------------------------------------------------------------------------*/
FoamFile
{
    version     2.0;
    format      ascii;
    class       volScalarField;
    location    "0.0006";
    object      rho;
}
// * * * * * * * * * * * * * * * * * * * * * * * * * * * * * * * * * * * * * //

dimensions      [1 -3 0 0 0 0 0];

internalField   nonuniform List<scalar> 
1167
(
950.7020686
950.6759226
950.5898869
950.563314
950.5063979
950.4223607
950.3130633
950.1801502
950.0252566
949.8499167
949.6554074
949.4430715
949.2144703
948.9706088
948.7126407
948.4419722
948.1593305
947.8659791
947.5627476
947.2505744
946.9303583
946.6028116
946.2688323
945.9289847
945.5841101
945.2347363
944.8815809
944.5251731
944.1660997
943.8049736
943.4422332
943.0785989
942.7143474
942.3503518
941.9868036
941.6245546
941.2638777
940.9055288
940.5499301
940.1976956
939.8493134
939.5052799
939.16613
938.8322221
938.5040277
938.1817567
937.8656975
937.5559408
937.2525415
936.9554686
936.6644227
936.3793179
950.4785052
950.4514337
950.3934513
950.3078358
950.1964757
950.061078
949.9033441
949.7246052
949.5262746
949.3098457
949.0766382
948.827711
948.5644547
948.2878687
947.9989495
947.6989182
947.3883935
947.068657
946.7401156
946.4039507
946.0605042
945.7108618
945.3552984
944.9948335
944.6296957
944.2607459
943.888351
943.5131792
943.1357717
942.7565868
942.3764051
941.9955423
941.6149065
941.2348622
940.856236
940.4796928
940.1058772
939.7356873
939.3696353
939.0088272
938.6536648
938.3051583
937.9637099
937.6301008
937.3046295
936.9878214
936.6796242
936.3802768
936.0893269
935.8067195
950.3678047
950.3401556
950.2809371
950.19349
950.0797473
949.9415628
949.7803655
949.597648
949.3948557
949.1735969
948.9348875
948.6800149
948.4103309
948.1266382
947.8302653
947.521957
947.2027534
946.8734251
946.534806
946.1875946
945.832522
945.470156
945.1012518
944.7261544
944.3457192
943.9601557
943.5702645
943.1763985
942.7791129
942.3790931
941.9767047
941.5728203
941.1679162
940.7627523
940.3582915
939.9551455
939.554467
939.1571552
938.7642637
938.3771191
937.9966249
937.624215
937.2608494
936.9077426
936.5657559
936.2356827
935.9180371
935.613078
935.3206613
935.040496
950.2576699
950.2293567
950.1687163
950.0791754
949.9628179
949.8212402
949.6560322
949.4686952
949.2608643
949.0337723
948.7886072
948.5268445
948.2494036
947.957399
947.6519406
947.3337483
947.0039435
946.6630112
946.3119892
945.9512472
945.5816383
945.203582
944.8176522
944.4243955
944.024088
943.6175208
943.204832
942.78659
942.3633565
941.9354593
941.5036237
941.0684106
940.6304268
940.1906715
939.749913
939.3091246
938.8696791
938.4328
937.9998962
937.572802
937.1531762
936.7428647
936.3440503
935.9584159
935.5879956
935.234369
934.8988574
934.5823358
934.2850698
934.0066811
950.1479894
950.1189181
950.056701
949.9648631
949.845345
949.6998757
949.5300578
949.3375031
949.1237156
948.889859
948.6373143
948.3673367
948.0807929
947.7790676
947.4627445
947.1329648
946.7902642
946.4355996
946.0693194
945.6923307
945.3048105
944.907501
944.5006163
944.0845333
943.6597835
943.2264583
942.7849994
942.3357985
941.8790585
941.4152432
940.9449327
940.4685204
939.9866626
939.5002873
939.0102657
938.517702
938.0239788
937.5308688
937.0402059
936.5541872
936.0753749
935.6068497
935.1516046
934.7130097
934.2947247
933.8999378
933.5316744
933.1924189
932.8834005
932.6049438
950.03873
950.0088414
949.9448254
949.8502534
949.7271419
949.5772402
949.4021759
949.2037018
948.982989
948.7413465
948.4803352
948.2007528
947.9038334
947.5905122
947.2616055
946.9179764
946.5602196
946.188986
945.8047995
945.4079852
944.9991766
944.5783792
944.1460067
943.7022737
943.247212
942.7810796
942.3040455
941.8161173
941.3174567
940.8084196
940.2892128
939.7601298
939.221669
938.6745006
938.1195853
937.5579408
936.9910006
936.4205507
935.8488294
935.2786309
934.7133597
934.1571289
933.614702
933.0915563
932.5937936
932.1278795
931.700466
931.3171904
930.9825421
930.6986182
949.9298008
949.8989455
949.8328561
949.7351999
949.6080294
949.4531128
949.2722657
949.0668765
948.8382737
948.5879363
948.3169936
948.0264146
947.7174829
947.3907032
947.0472576
946.6873905
946.3120578
945.9213896
945.5159466
945.0959802
944.6615394
944.2129805
943.750169
943.2730605
942.7817054
942.2759999
941.7557168
941.2207227
940.6709116
940.1063091
939.5267613
938.9323078
938.3231259
937.6995238
937.0620447
936.411506
935.749043
935.0762968
934.3954762
933.7095064
933.0222795
932.3388416
931.6655848
931.0105649
930.3835573
929.7961602
929.2614059
928.7927943
928.4027922
928.0999749
949.8210287
949.7890905
949.7206786
949.6195644
949.4878375
949.3274027
949.1398997
948.9267038
948.6892365
948.4289537
948.1467035
947.8437719
947.5208769
947.178917
946.818429
946.4400969
946.0440801
945.6310375
945.2008319
944.7536294
944.289534
943.808237
943.3095542
942.7933319
942.2591517
941.7065476
941.1350672
940.5442478
939.9336055
939.30261
938.6508099
937.9777888
937.2831464
936.5666937
935.8282887
935.0680852
934.2865362
933.4844799
932.663554
931.8259336
930.9749215
930.1154238
929.2544746
928.4016561
927.5703803
926.7787342
926.0500122
925.4131512
924.9006039
924.5428527
949.7123309
949.6791861
949.6081871
949.5032185
949.3664723
949.1998486
949.0048301
948.7828764
948.5355778
948.2639299
947.969032
947.651966
947.3133125
946.953956
946.574202
946.1745319
945.7551841
945.3161199
944.8575396
944.3791297
943.8805714
943.3615
942.8215873
942.2600666
941.676262
941.0694108
940.4387018
939.7832416
939.1020599
938.3941907
937.6586036
936.8942575
936.100099
935.2752234
934.4185882
933.5292051
932.606536
931.64995
930.6592988
929.6348421
928.5778987
927.4907552
926.3778898
925.2469314
924.110429
922.9888958
921.9153783
920.9410298
920.1413109
919.6168467
949.6036362
949.5691511
949.4952858
949.3860824
949.2438276
949.0702087
948.8668248
948.6352427
948.3768017
948.0924288
947.7834534
947.4503659
947.094132
946.714935
946.3135251
945.8897196
945.4436933
944.9754305
944.4844712
943.9704223
943.432846
942.8710208
942.2840723
941.6710804
941.0310025
940.362722
939.6649861
938.9364439
938.1756886
937.3811697
936.5514937
935.6847277
934.7790781
933.8328833
932.8438732
931.8102358
930.729459
929.5992376
928.4171244
927.1803704
925.8861
924.5315
923.113916
921.6317699
920.0853848
918.4808734
916.8370135
915.2016023
913.6877505
912.5569506
949.498894
949.4634739
949.3875956
949.2754301
949.129076
948.950324
948.7407408
948.5020225
948.2350892
947.9411224
947.6210835
947.2755568
946.9052212
946.5103523
946.0910896
945.6476517
945.1796666
944.6868388
944.1688722
943.6249681
943.054345
942.4560804
941.829133
941.1723004
940.4842947
939.7636892
939.0089127
938.2183322
937.3901276
936.5226728
935.6136535
934.6610024
933.6624562
932.6154362
931.5172268
930.3648893
929.1548754
927.8834482
926.5461108
925.1375402
923.6512992
922.0792541
920.410736
918.6314084
916.7209336
914.648797
912.3670971
909.7972836
906.8043537
903.1499094
949.397049
949.361076
949.2839278
949.1697215
949.0206196
948.8383851
948.624693
948.3808869
948.1079537
947.8071822
947.4790865
947.1245123
946.7436396
946.337039
945.9044481
945.4459007
944.961189
944.4496842
943.9107874
943.343748
942.7477119
942.1215464
941.4640253
940.7738277
940.0495508
939.28968
938.4925526
937.6563554
936.7792051
935.8592782
934.8942916
933.8820923
932.8201612
931.7061765
930.5370731
929.3097601
928.0209163
926.6666427
925.2424248
923.7430124
922.162307
920.4925083
918.7243573
916.8457621
914.8410837
912.6899926
910.365111
907.8299957
905.0350798
901.9110623
949.2937439
949.2571032
949.1784933
949.0620707
948.9099884
948.7239975
948.5058357
948.2565232
947.9772298
947.6690074
947.3323263
946.9679768
946.5760345
946.1567529
945.7101011
945.2357153
944.7332559
944.2022389
943.6417843
943.0510203
942.4289166
941.774329
941.0859578
940.3624397
939.6022579
938.803812
937.9655294
937.0856491
936.1622137
935.1934404
934.1771728
933.1114188
931.993863
930.8221521
929.5937999
928.3061208
926.9562097
925.540895
924.0566002
922.4992191
920.8645112
919.1471347
917.3412563
915.4399737
913.4352604
911.3178413
909.0770517
906.7007787
904.1753956
901.4843938
949.1887675
949.1513742
949.0711292
948.9522347
948.7968355
948.6068122
948.3835438
948.1281465
947.8419049
947.525433
947.1794803
946.8043485
946.4004327
945.967516
945.5056638
945.0144599
944.493307
943.9415492
943.3583866
942.7429159
942.0939566
941.410283
940.6905918
939.9336119
939.1377402
938.301464
937.4231263
936.5013432
935.5341333
934.5199516
933.4568059
932.343202
931.1770652
929.9564641
928.6795184
927.3442892
925.9486132
924.4903645
922.9673435
921.3772537
919.7176081
917.9859494
916.179821
914.2965894
912.3338351
910.2894611
908.1615067
905.948868
903.6508948
901.2673039
949.0820374
949.0438089
948.9617542
948.8401293
948.6811484
948.4865988
948.2577229
947.995751
947.7018229
947.3763854
947.0203523
946.6336804
946.2167682
945.7694137
945.2913173
944.7821914
944.241399
943.6681236
943.0614985
942.4205136
941.7440651
941.0309232
940.2798323
939.489411
938.6583185
937.7852562
936.8685952
935.907016
934.8990281
933.8432228
932.7380813
931.5824239
930.3747622
929.1137392
927.7982139
926.4269471
924.9988448
923.5130207
921.9683902
920.3643534
918.70031
916.9761164
915.1916338
913.347337
911.4442947
909.4840706
907.4690002
905.4023003
903.2876885
901.1289563
948.9734763
948.9343325
948.8502973
948.7257035
948.5628764
948.3633063
948.1283341
947.8593215
947.5569828
947.2220641
946.8550036
946.4561028
946.0252293
945.5625372
945.0674782
944.5395539
943.9781328
943.382483
942.7516936
942.0847005
941.3803934
940.6376843
939.8553912
939.0321968
938.1668851
937.2583022
936.3052818
935.3065118
934.2610273
933.167664
932.0254758
930.8335777
929.5911999
928.2976989
926.9525863
925.5555367
924.1063767
922.6050543
921.0520097
919.4477975
917.7933988
916.0900057
914.3395545
912.5442202
910.7069004
908.8310326
906.9206937
904.9804546
903.0151578
901.0293231
948.8630107
948.8228746
948.7366933
948.6090273
948.4418888
948.2368992
947.9954493
947.7187717
947.4074162
947.0623543
946.683587
946.2716588
945.826271
945.3472368
944.8343895
944.2870052
943.704408
943.0858208
942.4303461
941.7370207
941.0047932
940.2326294
939.419414
938.5642425
937.6659992
936.7236126
935.7364347
934.7033183
933.6237479
932.4970027
931.3225903
930.1001255
928.8294678
927.510704
926.1439595
924.7296918
923.2685367
921.7615005
920.2099625
918.6153321
916.9798726
915.305717
913.5957258
911.8533908
910.0823372
908.2867743
906.4713018
904.6407145
902.7996842
900.9523226
948.7505716
948.7094062
948.6210388
948.4899082
948.3181471
948.1073555
947.8590744
947.5741283
947.2533578
946.8973574
946.5064125
946.0805645
945.6199584
945.1241258
944.5926752
944.0250645
943.4207206
942.7787577
942.0983315
941.3785282
940.6185183
939.8173758
938.97412
938.0879206
937.1581819
936.1840389
935.1650115
934.1004792
932.9903422
931.8342912
930.6323005
929.3845286
928.091485
926.7537771
925.3722149
923.9479416
922.4822643
920.9771007
919.4342542
917.856196
916.245553
914.605424
912.9390755
911.2505644
909.543782
907.8230925
906.0930409
904.3582067
902.6227314
900.890053
948.6362303
948.5939475
948.5031241
948.3683027
948.1916226
947.9747849
947.7191356
947.4254388
947.09475
946.7272065
946.3234782
945.883288
945.4066338
944.8933899
944.3429324
943.7547402
943.1281864
942.4625489
941.7570702
941.0109419
940.2234132
939.3936998
938.5213271
937.6055276
936.6458429
935.6420029
934.5936578
933.5007174
932.3634493
931.1819878
929.9567728
928.6885645
927.3783554
926.0272349
924.6366602
923.2082669
921.7441017
920.2464402
918.7176785
917.160841
915.578851
913.9752565
912.3535985
910.7180418
909.0724185
907.4210314
905.7681851
904.1177682
902.4733847
900.8380657
948.5198094
948.4763233
948.3829
948.2441743
948.0622964
947.8391404
947.5756655
947.2729205
946.9316771
946.5522833
946.1350096
945.6799836
945.1869222
944.6555702
944.0855931
943.4764396
942.8274704
942.1380571
941.4075334
940.6353295
939.8209011
938.9635979
938.0630043
937.1190299
936.1312429
935.0998234
934.0246955
932.9063252
931.7452484
930.5420677
929.2977017
928.0134266
926.6906253
925.3309069
923.9361899
922.5085382
921.0505121
919.5646457
918.0538107
916.5212744
914.9702149
913.4042523
911.8270944
910.2426658
908.6547646
907.0674791
905.4843875
903.9092103
902.3448175
900.7936289
948.4012328
948.3564809
948.2603229
948.1174936
947.9303381
947.7003763
947.4287117
947.116564
946.764272
946.3725815
945.9413952
945.470935
944.9610628
944.4113906
943.8215626
943.1911443
942.5196282
941.8065003
941.0512292
940.2533741
939.412508
938.5285372
937.6011611
936.6303909
935.616447
934.5595742
933.4601975
932.3192812
931.1375447
929.9160752
928.6562952
927.3598464
926.0284647
924.664229
923.2693623
921.8463702
920.3980788
918.9272798
917.437049
915.9307775
914.4117891
912.8836077
911.3500474
909.8145483
908.2809934
906.7527128
905.233338
903.725579
902.2322363
900.7549532
948.2804476
948.2343719
948.135355
947.9883387
947.7955746
947.5585199
947.278478
946.9564226
946.5928522
946.1882959
945.7429178
945.256654
944.7294626
944.1611661
943.5513295
942.8995881
942.2055503
941.4688247
940.6890734
939.8662347
938.9999492
938.0902127
937.1373589
936.1414829
935.1032355
934.02309
932.9020545
931.7412357
930.541804
929.3052472
928.0334012
926.7281937
925.3917414
924.0264403
922.6347761
921.2195419
919.7837048
918.3303216
916.8625276
915.3836721
913.8971777
912.406402
910.9150054
909.4262344
907.9434605
906.470023
905.008669
903.5620909
902.1323535
900.7208086
948.1574052
948.1099531
948.0080371
947.8566752
947.6580129
947.4136086
947.1249534
946.7926139
946.417497
945.9997148
945.5397611
945.0375159
944.4928608
943.9056353
943.2756233
942.6025548
941.8861782
941.1262514
940.3226479
939.475303
938.5844326
937.650298
936.6732211
935.6540014
934.5932757
933.492054
932.3517333
931.1735857
929.9592035
928.7104938
927.4295706
926.1186096
924.7800818
923.4165681
922.0308306
920.6257922
919.2045379
917.7702518
916.3260318
914.8751702
913.4210784
911.9669682
910.5160576
909.0716379
907.6366423
906.2138527
904.8059426
903.4150573
902.0428056
900.690318
920.0631163
918.6579803
917.2439205
915.8239624
914.4012952
912.9790414
911.5605518
910.1486149
908.7461354
907.3558422
905.9803252
904.6216713
903.281733
901.9618343
900.6628371
)
;

boundaryField
{
    front_top
    {
        type            wedge;
    }
    front_middle
    {
        type            wedge;
    }
    front_bottom
    {
        type            wedge;
    }
    back_top
    {
        type            wedge;
    }
    back_middle
    {
        type            wedge;
    }
    back_bottom
    {
        type            wedge;
    }
    axis_top
    {
        type            symmetryPlane;
    }
    axis_middle
    {
        type            symmetryPlane;
    }
    axis_bottom
    {
        type            symmetryPlane;
    }
    wall_top
    {
        type            calculated;
        value           nonuniform List<scalar> 10(936.2383912 935.6681663 934.9050584 933.8755059 932.4794243 930.5807338 927.9923873 924.4491232 919.5421463 912.5091735);
    }
    wall_middle
    {
        type            calculated;
        value           uniform 900.0184441;
    }
    wall_bottom
    {
        type            calculated;
        value           nonuniform 0();
    }
    inlet
    {
        type            calculated;
        value           nonuniform 0();
    }
    outlet
    {
        type            calculated;
        value           nonuniform 0();
    }
    procBoundary5to4
    {
        type            processor;
        value           nonuniform List<scalar> 
51
(
948.0321017
947.9832924
947.8783741
947.7224189
947.5176687
947.2658476
946.9681678
946.6253882
946.2383222
945.8072311
945.3322967
944.8137922
944.2515368
943.6454084
942.9952806
942.3010118
941.5624954
940.7796825
939.9527683
939.0819411
938.1674832
937.2100614
936.2103761
935.1693633
934.0880471
932.9679576
931.810534
930.617478
929.390707
928.1324736
926.8451035
925.5310394
924.1929853
922.8336662
921.4560545
921.4560545
919.5295791
918.1417535
916.7485518
915.3531581
913.9585105
912.5676116
911.1834043
909.8086316
908.4459724
907.0977547
905.7661602
904.4530653
903.1600393
901.8880986
900.6378794
)
;
    }
    procBoundary5to6
    {
        type            processor;
        value           nonuniform List<scalar> 
51
(
950.8152375
950.789417
950.6199186
950.6199186
950.5372302
950.4296928
950.2989304
950.1464693
949.9739292
949.782646
949.573874
949.3489805
949.1093411
948.8558909
948.5899378
948.3125107
948.024499
947.7271637
947.4210715
947.1074419
946.7867674
946.4601107
946.1279548
945.7912214
945.4503652
945.1062409
944.7592026
944.4100806
944.0591382
943.7072381
943.3545359
943.0019139
942.6494761
942.2980354
941.9477726
941.5993632
941.2530497
940.9094178
940.5687507
940.231527
939.8979907
939.5685372
939.2433666
938.9227884
938.6068711
938.2958589
937.989613
937.6883387
937.3916971
937.0998983
936.8124118
)
;
    }
}


// ************************************************************************* //
