/*--------------------------------*- C++ -*----------------------------------*\
  =========                 |
  \\      /  F ield         | OpenFOAM: The Open Source CFD Toolbox
   \\    /   O peration     | Website:  https://openfoam.org
    \\  /    A nd           | Version:  7
     \\/     M anipulation  |
\*---------------------------------------------------------------------------*/
FoamFile
{
    version     2.0;
    format      ascii;
    class       volScalarField;
    location    "0.0006";
    object      T;
}
// * * * * * * * * * * * * * * * * * * * * * * * * * * * * * * * * * * * * * //

dimensions      [0 0 0 1 0 0 0];

internalField   nonuniform List<scalar> 
1167
(
434.2476078
434.286142
434.4129573
434.4521299
434.5360407
434.659954
434.8211465
435.0172176
435.2457832
435.5046097
435.791845
436.1055395
436.4434202
436.8040358
437.1857136
437.5864056
438.0050666
438.4398552
438.8895707
439.3528481
439.8283789
440.3151286
440.8117845
441.3175271
441.8311221
442.3517996
442.8785043
443.4104589
443.9467984
444.4866154
445.0292614
445.5736638
446.1194113
446.6651968
447.2107324
447.7547375
448.2967977
448.8357706
449.3710133
449.9015911
450.4267576
450.9457507
451.4577489
451.9621949
452.458359
452.945906
453.4243808
453.8936276
454.3535442
454.8041593
455.2459096
455.6789088
434.5771662
434.6170832
434.7025862
434.828857
434.9931315
435.1929173
435.4257332
435.689646
435.9826026
436.3024321
436.6472197
437.0154353
437.4050568
437.8146393
438.2427408
438.6875837
439.1482815
439.6229615
440.1110474
440.6108096
441.1217638
441.6423171
442.1720805
442.7095538
443.2544128
443.8053879
444.3619448
444.9230962
445.4880417
446.0561035
446.6261176
447.1976142
447.7692322
448.340423
448.9099414
449.4767814
450.0399645
450.5981266
451.1504824
451.6953468
452.2320947
452.7591786
453.2759676
453.7812552
454.2745639
454.7550712
455.2228301
455.6774521
456.1195994
456.5493322
434.7404089
434.7811872
434.8685335
434.9975365
435.1653665
435.3693151
435.6073037
435.8771619
436.1767906
436.5038498
436.856875
437.2340001
437.6332616
438.0535079
438.4928066
438.9500882
439.4238433
439.9129601
440.4162304
440.932645
441.4611438
442.0009075
442.5508355
443.110436
443.6784541
444.2545961
444.8376837
445.4272053
446.0223442
446.6220859
447.2258927
447.8324632
448.4410879
449.0506273
449.6596331
450.2671805
450.8715261
451.4713028
452.0649059
452.6503125
453.2261337
453.7901732
454.3409464
454.8765792
455.3957288
455.8971528
456.3800317
456.8439333
457.2890395
457.7157583
434.9028552
434.9446227
435.0340873
435.1662105
435.3379406
435.5469494
435.7909221
436.0676767
436.3748351
436.7106136
437.0732956
437.4607378
437.8716193
438.3043291
438.7572608
439.2293849
439.7190741
440.225644
440.7475867
441.2843861
441.8348046
442.3982481
442.9738912
443.5609469
444.1590305
444.7669857
445.3846308
446.0111388
446.6456899
447.287813
447.9364379
448.5907382
449.2498152
449.9121758
450.5766694
451.2418319
451.9055894
452.5660868
453.2211811
453.8680768
454.5042347
455.1268231
455.7324894
456.3186304
456.8821019
457.4204437
457.9315849
458.4141317
458.8676206
459.2925733
435.0646689
435.1075646
435.1993768
435.3349217
435.5113595
435.7261675
435.9770133
436.261553
436.5776042
436.9234872
437.2972022
437.6969347
438.1214441
438.5687222
439.037946
439.5274646
440.0365241
440.5637434
441.1086446
441.6699172
442.247336
442.8398331
443.4471259
444.0686889
444.7037642
445.3522507
446.0135225
446.6870272
447.3724942
448.0692604
448.7764854
449.493607
450.2196651
450.9532851
451.6931738
452.4376792
453.1847222
453.9316224
454.6755964
455.4132972
456.1408088
456.8534108
457.5464987
458.2148758
458.8528872
459.4555812
460.018243
460.5369774
461.0098065
461.4361413
435.2258984
435.2700102
435.3644991
435.5041126
435.6858997
435.9073089
436.1659726
436.4593405
436.7857238
437.1432315
437.5295999
437.9436945
438.3837347
438.8483817
439.3364723
439.8467729
440.3784471
440.9305747
441.5024232
442.0935559
442.7030754
443.3310209
443.9768228
444.6402082
445.3211784
446.0193968
446.7346599
447.4670073
448.2162477
448.9818981
449.7636988
450.5612594
451.373879
452.2005949
453.0400004
453.8905967
454.7502476
455.6162708
456.4852834
457.3530395
458.2143422
459.0628874
459.8913482
460.6912729
461.4532183
462.1671493
462.8227127
463.4110897
463.9252137
464.3616989
435.3866775
435.4322267
435.5297986
435.6739997
435.8618267
436.0907017
436.3579812
436.6616557
436.9998069
437.3702949
437.7714984
438.2020336
438.6600505
439.1448536
439.6547425
440.1894081
440.7474847
441.3288338
441.9326771
442.558697
443.2068788
443.8767505
444.5685743
445.2824803
446.018459
446.7767339
447.5577172
448.3616831
449.188868
450.0393136
450.9133338
451.8109544
452.7319946
453.6760769
454.6424665
455.6300104
456.6370669
457.661216
458.6991584
459.7464819
460.7972689
461.8437988
462.8762398
463.8821478
464.8463641
465.7508471
466.5752642
467.2984912
467.9009537
468.3690852
435.5472617
435.5944202
435.6954447
435.8447877
436.0393927
436.2764817
436.5536735
436.868981
437.2203517
437.6056837
438.0237761
438.4727805
438.9516907
439.4592337
439.9946731
440.5570555
441.1462077
441.7612148
442.4023485
443.0694315
443.7623814
444.4817353
445.2278486
446.0010353
446.8020108
447.6315684
448.4904873
449.3795695
450.2996563
451.2516672
452.2364109
453.2546515
454.3071374
455.3943046
456.5165249
457.6737259
458.8653829
460.0903826
461.3463843
462.6302092
463.9369256
465.2590985
466.5859562
467.9027094
469.188531
470.4151975
471.546216
472.5361196
473.3337867
473.8910716
435.7077729
435.7567242
435.8615937
436.0166669
436.2187377
436.4650371
436.7534192
437.0817755
437.4478079
437.8501003
438.2870855
438.7572231
439.2597178
439.7933245
440.3576598
440.9520808
441.576308
442.2304779
442.9143743
443.6285513
444.3735764
445.150092
445.9586931
446.8006382
447.6770607
448.5892339
449.5385158
450.526401
451.5545139
452.624488
453.7380706
454.8970429
456.1032245
457.3582285
458.6638983
460.0220174
461.4337029
462.9002337
464.422167
465.9994472
467.6303923
469.3118166
471.0371109
472.7947073
474.5652532
476.3167532
477.9972588
479.5259149
480.7830135
481.6086194
435.8683162
435.9192588
436.0283875
436.1897561
436.4000199
436.6567279
436.9575649
437.3002686
437.6829168
438.1042007
438.5622187
439.0563144
439.5851297
440.1484701
440.7453022
441.3759827
442.0403413
442.7384964
443.471234
444.2392487
445.0433099
445.8846205
446.7646236
447.6848442
448.6470059
449.6529591
450.7047781
451.8047049
452.9550892
454.1585231
455.4173876
456.7349131
458.1141536
459.5579993
461.0703098
462.6542913
464.3142736
466.0543273
467.8788049
469.792595
471.8008626
473.9087632
476.1212983
478.4418787
480.8710069
483.400089
486.0003736
488.5965633
491.0080627
492.8145975
436.0230564
436.0753918
436.1875198
436.3533036
436.5696778
436.8340407
437.1441279
437.4974886
437.892825
438.3284565
438.8030317
439.315762
439.8657217
440.4525884
441.0762461
441.7364664
442.4339061
443.1691159
443.9426555
444.7558446
445.6099896
446.5066208
447.4474617
448.4344951
449.469851
450.5558908
451.6952177
452.8905559
454.1449434
455.4611575
456.8430575
458.2941716
459.8183735
461.4200722
463.1039479
464.8750918
466.7396128
468.7040056
470.7760491
472.9649377
475.2817626
477.7404712
480.3592533
483.1624353
486.1843433
489.4762326
493.1183411
497.2422183
502.0745491
508.0183775
436.1735492
436.2267129
436.3407424
436.5095797
436.7300662
436.999642
437.3158844
437.6768666
438.0811949
438.5270331
439.0136971
439.5400158
440.1058103
440.7103268
441.3540552
442.0370519
442.7597405
443.5231811
444.3284004
445.1766636
446.0694047
447.00849
447.9959451
449.0339582
450.1248635
451.2711887
452.4757134
453.7414767
455.0716599
456.4693918
457.9385432
459.4828366
461.1066074
462.8139502
464.6101663
466.5006787
468.4913537
470.5890542
472.8017195
475.1385799
477.6103652
480.2306884
483.0157334
485.9865104
489.1701296
492.6018209
496.3290002
500.4149773
504.9462184
510.0442518
436.3262326
436.3803949
436.4966103
436.6687627
436.8937083
437.1689062
437.4918428
437.8610724
438.2749341
438.7319465
439.2314955
439.7724975
440.3549355
440.9785347
441.64345
442.3503401
443.0998373
443.8927995
444.7306888
445.6149692
446.5473588
447.529764
448.5643459
449.6533844
450.7994158
452.0051314
453.2732128
454.6066598
456.0088098
457.4827776
459.0322923
460.6608854
462.3726381
464.1717537
466.0627092
468.0503667
470.1400147
472.3374521
474.6492206
477.0828177
479.646102
482.3488347
485.2017632
488.217575
491.4110459
494.7993123
498.4021845
502.2423506
506.3456098
510.7432676
436.4814201
436.5367071
436.6553665
436.8312144
437.06112
437.3423527
437.6729317
438.051273
438.4755486
438.9449309
439.4583972
440.0155954
440.6160415
441.2601686
441.9479984
442.6802791
443.4580401
444.2824114
445.1547523
446.0765927
447.0498963
448.0767154
449.1592426
450.2996467
451.5006244
452.7647679
454.0949216
455.4935522
456.9640727
458.5092769
460.1326874
461.837117
463.6263207
465.5038953
467.4734239
469.5386486
471.7037342
473.9728711
476.3504531
478.8411232
481.4499287
484.181988
487.0425425
490.0372491
493.1715695
496.4505996
499.8793675
503.4616685
507.2006984
511.0991826
436.6392352
436.69577
436.8171332
436.9970613
437.2323224
437.5203256
437.8592952
438.2474815
438.6832757
439.1661029
439.6947025
440.2692416
440.8892398
441.5551172
442.2674499
443.0268072
443.8342917
444.6912888
445.5992754
446.5599613
447.5752171
448.647125
449.7778315
450.969699
452.225059
453.5462106
454.9359873
456.3967916
457.9313247
459.5422059
461.2322676
463.0038708
464.8598984
466.8030853
468.8358876
470.9609693
473.1808278
475.4976971
477.914181
480.4321876
483.0536845
485.7799773
488.6124165
491.5514272
494.5965212
497.7464362
500.9986695
504.3492679
507.7934121
511.3260903
436.7997944
436.857696
436.9820174
437.1663814
437.4073933
437.7029038
438.050995
438.4497259
438.898123
439.3951737
439.9403295
440.533254
441.1742642
441.8632614
442.6012033
443.3889871
444.2277226
445.1186854
446.0634371
447.0637882
448.121641
449.2388891
450.4175922
451.6600431
452.9684124
454.3448089
455.7913933
457.3105844
458.9043108
460.5748433
462.3241605
464.1541882
466.066717
468.0633849
470.1456318
472.3146848
474.571574
476.9171771
479.3516351
481.8749354
484.4864143
487.1850868
489.9687886
492.8349607
495.7798606
498.7988307
501.8861129
505.035058
508.2384661
511.4895447
436.9632078
437.0225912
437.1501178
437.3390737
437.5865291
437.8901436
438.2479287
438.6581391
439.1200505
439.6323216
440.1950613
440.8075796
441.4704514
442.1840962
442.9489165
443.7661591
444.6370158
445.5628476
446.5452148
447.5857974
448.6864313
449.8489518
451.0753433
452.3673002
453.7268659
455.1560487
456.6562475
458.2296515
459.8775242
461.6014746
463.4027967
465.282654
467.2418652
469.2809273
471.4003044
473.5999701
475.8796393
478.2384628
480.6750125
483.1878117
485.7740269
488.4310063
491.1549116
493.9408462
496.7836334
499.677079
502.6142617
505.5878348
508.5905335
511.6158936
437.1295797
437.1905006
437.3212935
437.5154254
437.7697899
438.0820812
438.4500922
438.872687
439.348716
439.8774043
440.4584463
441.0919094
441.7777185
442.5167245
443.3096782
444.1575708
445.0614566
446.0228763
447.0433302
448.1244447
449.2677435
450.4749211
451.7477809
453.0879286
454.4966426
455.9756383
457.5260774
459.1493647
460.8461394
462.617388
464.4636896
466.3853649
468.3822142
470.4539028
472.5997954
474.8187466
477.1093567
479.4692655
481.8962755
484.3871168
486.9382381
489.5452961
492.2036245
494.9072259
497.6502846
500.4261347
503.2277171
506.0478076
508.8797867
511.7180865
437.2988067
437.3613964
437.4958575
437.6955039
437.9572215
438.278558
438.6575994
439.0933047
439.5842119
440.1302322
440.7304973
441.3855579
442.0955697
442.8608857
443.6826164
444.5617377
445.4994008
446.4969201
447.5556844
448.6771818
449.8628386
451.1141568
452.4321969
453.8184881
455.2741193
456.7999198
458.3968653
460.0655617
461.8060909
463.6187584
465.5034197
467.4594523
469.4858837
471.5815963
473.7449017
475.9738262
478.2657405
480.6176333
483.0262735
485.4874007
487.9968639
490.5494636
493.1399422
495.7619671
498.4096525
501.076265
503.7549702
506.4395106
509.1240023
511.8034155
437.4711535
437.5355402
437.6738852
437.8793661
438.1488551
438.4796474
438.8704065
439.3196754
439.8264197
440.3902459
441.0108886
441.6883074
442.4230876
443.2157888
444.067105
444.978072
445.949877
446.9837121
448.080848
449.2424341
450.4696045
451.7636779
453.1256446
454.5560258
456.0558839
457.6253754
459.2650669
460.9747184
462.7539976
464.6024828
466.5192778
468.5029379
470.5518529
472.6640552
474.8370836
477.0682309
479.3539866
481.6908451
484.0747284
486.5008827
488.9646366
491.4605513
493.9829748
496.5258284
499.0831523
501.648433
504.2158938
506.7794451
509.3343034
511.8763595
437.6467351
437.7130126
437.8554436
438.0670584
438.3444429
438.6854211
439.0884478
439.5518184
440.0751487
440.6574629
441.2990519
441.9997466
442.7599285
443.5803689
444.4618086
445.4051254
446.4113262
447.4814492
448.6165809
449.8176948
451.085767
452.4212934
453.8251043
455.297581
456.8388065
458.4488449
460.1275023
461.8737735
463.6870353
465.5661072
467.5092928
469.5145516
471.5796859
473.7019498
475.8783492
478.1054191
480.3791552
482.6955621
485.0501476
487.4378637
489.8537047
492.2922792
494.7476584
497.2144351
499.6864131
502.1582075
504.6238714
507.0788808
509.518505
511.9398522
437.8256322
437.8938876
438.0405915
438.2584681
438.5442448
438.8958426
439.3114255
439.7896605
440.3299339
440.9316014
441.5945754
442.3191239
443.1054984
443.9541701
444.8660134
445.8418176
446.8824333
447.9887323
449.1615281
450.4012404
451.7087588
453.0844589
454.5282249
456.0403192
457.6201775
459.2675183
460.9812548
462.7601544
464.6028885
466.5076392
468.4720436
470.4935816
472.5694215
474.6962711
476.8706668
479.0886268
481.3458509
483.6378469
485.9599436
488.3070714
490.673978
493.0554475
495.4457084
497.8395804
500.2316125
502.6163349
504.9891702
507.3455729
509.6819683
511.9959111
438.0079192
438.0782321
438.2292713
438.4536493
438.748254
439.1108606
439.5393606
440.0330323
440.590664
441.2122402
441.8971946
442.6458903
443.4587062
444.3361029
445.2786434
446.2869912
447.3618037
448.5037451
449.7133273
450.9909902
452.3367705
453.7506538
455.2325511
456.7816629
458.3974478
460.0788044
461.8240436
463.6316656
465.4996756
467.4255839
469.4065643
471.4396729
473.5214808
475.6483547
477.8163394
480.021184
482.2583326
484.5230187
486.8105536
489.1158803
491.4336875
493.7589155
496.0864294
498.4109106
500.7275519
503.0317315
505.3189472
507.5855055
509.8285488
512.0459743
480.9060467
483.1204934
485.3558532
487.6074834
489.8704224
492.1397532
494.4101313
496.6770492
498.9357567
501.1817298
503.410616
505.6188314
507.8031348
509.9611155
512.0910987
)
;

boundaryField
{
    front_top
    {
        type            wedge;
    }
    front_middle
    {
        type            wedge;
    }
    front_bottom
    {
        type            wedge;
    }
    back_top
    {
        type            wedge;
    }
    back_middle
    {
        type            wedge;
    }
    back_bottom
    {
        type            wedge;
    }
    axis_top
    {
        type            symmetryPlane;
    }
    axis_middle
    {
        type            symmetryPlane;
    }
    axis_bottom
    {
        type            symmetryPlane;
    }
    wall_top
    {
        type            convectiveRadiativeHeatFlux;
        mode            convectiveRadiative;
        kappaMethod     fluidThermo;
        kappa           none;
        alphaAni        Anialpha;
        h               uniform 165;
        Ta              constant 513.15;
        emissivityNozzle 0.95;
        emissivityFilament 0.95;
        dNozzle         2;
        dFilament       1.65;
        refValue        uniform 513.15;
        refGradient     nonuniform List<scalar> 10(5206.232125 5139.451747 5049.772955 4927.840898 4760.507181 4530.080909 4208.884366 3755.208311 3096.316668 2078.43918);
        valueFraction   nonuniform List<scalar> 10(0.003177837956 0.003177131298 0.003176409897 0.003175628906 0.003174791866 0.003174740093 0.003175833687 0.003179898463 0.003190226208 0.003214105643);
        value           nonuniform List<scalar> 10(455.8930368 456.7601109 457.9221345 459.4928964 461.628403 464.5430048 468.5354806 474.0371495 481.7262886 492.8910233);
    }
    wall_middle
    {
        type            fixedValue;
        value           uniform 513.15;
    }
    wall_bottom
    {
        type            fixedValue;
        value           nonuniform 0();
    }
    inlet
    {
        type            fixedValue;
        value           nonuniform 0();
    }
    outlet
    {
        type            zeroGradient;
    }
    procBoundary5to4
    {
        type            processor;
        value           nonuniform List<scalar> 
51
(
438.1936047
438.2659479
438.4214787
438.65273
438.9564506
439.3301749
439.7722137
440.2815677
440.8571729
441.4988023
442.2063649
442.9796509
443.8191457
444.7252672
445.6984597
446.7392107
447.8479761
449.0251462
450.2707643
451.5849018
452.9675069
454.4179623
455.935611
457.5194488
459.1683437
460.8803941
462.6538335
464.486487
466.3758366
468.3188299
470.3122766
472.3527774
474.4364926
476.5595106
478.7174893
478.7174893
481.7460863
483.9357519
486.1405681
488.3555805
490.5761671
492.7975446
495.0149681
497.2239564
499.4200783
501.5994192
503.7582578
505.8933289
508.001835
510.0818567
512.1320824
)
;
    }
    procBoundary5to6
    {
        type            processor;
        value           nonuniform List<scalar> 
51
(
434.0808429
434.1188882
434.3686884
434.3686884
434.4905837
434.649142
434.8419925
435.0669118
435.3215397
435.6039363
435.9122818
436.2445896
436.5988597
436.9737416
437.3673321
437.7781385
438.2048727
438.6456934
439.0997858
439.5653645
440.0417202
440.5272942
441.0213866
441.5226424
442.0303988
442.5433953
443.0611141
443.5823255
444.106643
444.632783
445.1605161
445.6885237
446.2166504
446.7436761
447.2693269
447.7925841
448.3130774
448.8299192
449.3426745
449.850613
450.3533559
450.8502951
451.341116
451.8253377
452.3028431
452.7732484
453.2367496
453.6930216
454.1425641
454.5850454
455.0212571
)
;
    }
}


// ************************************************************************* //
