/*--------------------------------*- C++ -*----------------------------------*\
  =========                 |
  \\      /  F ield         | OpenFOAM: The Open Source CFD Toolbox
   \\    /   O peration     | Website:  https://openfoam.org
    \\  /    A nd           | Version:  7
     \\/     M anipulation  |
\*---------------------------------------------------------------------------*/
FoamFile
{
    version     2.0;
    format      ascii;
    class       volScalarField;
    location    "0.0006";
    object      thermo:mu;
}
// * * * * * * * * * * * * * * * * * * * * * * * * * * * * * * * * * * * * * //

dimensions      [1 -1 -1 0 0 0 0];

internalField   nonuniform List<scalar> 
1167
(
417276.414
415589.8067
410094.3581
408413.7808
404840.4555
399629.2303
392965.3596
385031.3258
376014.21
366095.5135
355439.1864
344207.3525
332564.5625
320636.3297
308545.6523
296415.0849
284324.7692
272367.4881
260606.7327
249100.8093
237897.1736
227028.6484
216527.0386
206407.1526
196686.8628
187370.2067
178462.6274
169961.3531
161862.5082
154160.4998
146844.2997
139907.2078
133332.9306
127115.2985
121235.6085
115685.8244
110448.4913
105513.3861
100865.4682
96492.5137
92380.91392
88517.6114
84890.41889
81485.82769
78292.18737
75296.03533
72485.5747
69848.15051
67371.84449
65045.05061
62855.17416
60792.33033
403102.2804
401423.3934
397854.2007
392649.8177
385995.9625
378077.9969
369085.9185
359189.2412
348559.6484
337366.6767
325761.7123
313873.4832
301835.7284
289752.0015
277714.9192
265814.8489
254107.4198
242663.7792
231514.0284
220707.3331
210257.9433
200197.1727
190526.9085
181265.2579
172405.439
163953.4664
155900.7345
148243.3229
140972.5508
134076.8201
127549.0964
121373.2225
115542.0573
110039.1556
104854.5982
99975.55388
95388.75895
91083.8449
87045.85326
83266.48221
79730.02685
76427.3776
73343.94697
70469.34116
67789.6678
65293.88707
62967.41814
60799.13531
58774.1161
56881.59675
396287.0152
394605.3169
391030.7274
385819.3365
379158.6982
371242.1328
362243.8676
352343.1282
341713.5607
330530.4707
318930.3302
307053.8635
295032.8531
282962.9718
270951.3322
259069.3605
247389.9948
235966.0641
224843.9069
214057.3085
203634.0608
193591.0025
183944.79
174696.7596
165857.1406
157417.5003
149380.1336
141735.2411
134475.4805
127593.9488
121076.7988
114917.3276
109101.3564
103618.1743
98458.62374
93608.20069
89058.37218
84796.78877
80812.36424
77096.17191
73634.84035
70419.80669
67438.28618
64679.97326
62132.24359
59782.82647
57618.49718
55625.59024
53789.31465
52095.59604
389636.3485
387947.1858
384357.3518
379125.5412
372447.4969
364501.8301
355472.8496
345541.0846
334890.6849
323678.4459
312051.2743
300159.3008
288115.6079
276031.1926
264004.7873
252108.6779
240419.9102
228982.877
217852.3076
207053.2726
196619.1099
186564.2516
176902.5341
167642.3655
158782.23
150328.7772
142271.8428
134608.1091
127331.6196
120430.6737
113898.5954
107724.3992
101896.6138
96407.55768
91245.07924
86398.42318
81859.7929
77618.30448
73663.82437
69988.82761
66583.0191
63436.86989
60542.64394
57888.52646
55465.26285
53260.92652
51262.91343
49457.29377
47828.41243
46359.19871
383139.0264
381437.6103
377825.1315
372563.7148
365840.9104
357843.9204
348759.0283
338773.9546
328067.2755
316794.5497
305113.8269
293166.4359
281065.8025
268935.8303
256856.0651
244917.3084
233177.4437
221699.7786
210518.9685
199679.5191
189197.6214
179099.6579
169392.9079
160085.0188
151183.0377
142681.5402
134579.8822
126873.7196
119553.5411
112612.5068
106043.4383
99834.83349
93977.31429
88462.93483
83281.16871
78422.33135
73877.60092
69639.57259
65699.1342
62048.11215
58678.98966
55585.72877
52759.78649
50193.63956
47880.3286
45809.8031
43971.60532
42353.66722
40939.89172
39712.76185
376788.9468
375072.7695
371426.8643
366114.2752
359327.5683
351256.5647
342090.8441
332027.2804
321230.0152
309865.0346
298100.8661
286060.9672
273877.7476
261659.1214
249497.3667
237475.6615
225657.5173
214099.3373
202845.0047
191925.5048
181373.7362
171200.4921
161422.5522
152047.5158
143075.9811
134510.3523
126348.4613
118583.3553
111208.9725
104220.064
97607.31717
91361.07948
85472.49123
79932.64319
74733.38644
69864.82038
65318.39897
61085.76134
57159.06453
53531.19704
50195.62863
47146.5831
44378.44102
41886.06437
39664.52199
37708.44007
36012.13916
34566.191
33358.7751
32372.79445
370577.0247
368838.6728
365146.4277
359767.3748
352897.327
344729.3115
335465.1657
325285.9545
314367.7767
302887.8094
290998.0951
278834.3062
266534.0546
254192.3006
241919.1401
229779.7567
217854.4219
206187.2508
194828.2712
183810.9929
173158.038
162894.3692
153028.7681
143569.0034
134521.4496
125886.6083
117660.8345
109840.3142
102419.8013
95393.916
88753.309
82489.50232
76593.73643
71056.64645
65868.93825
61021.25512
56504.08783
52308.54338
48426.0114
44848.34299
41568.37113
38579.89129
35877.66968
33457.97466
31318.21364
29457.19182
27874.38043
26568.53398
25536.02639
24766.61145
364490.106
362724.5078
358975.2473
353514.2782
346541.2887
338259.2452
328864.166
318540.9448
307474.6791
295845.486
283797.9071
271485.9162
259028.7943
246542.2515
234117.6513
221841.2189
209772.596
197978.2097
186493.2971
175355.7827
164595.5932
154228.1932
144268.3926
134727.8263
125610.0862
116915.946
108644.5646
100793.1347
93356.89561
86329.05279
79702.31055
73468.20918
67616.97907
62139.06987
57023.52355
52259.61089
47836.29327
43742.28425
39967.45532
36500.70256
33331.85772
30452.17512
27854.52663
25533.0879
23485.21015
21711.59542
20216.28566
19007.59556
18096.12971
17490.30472
358520.7853
356722.7841
352905.7566
347347.358
340255.1524
331835.2705
322280.4491
311785.2408
300547.6291
288732.3477
276501.4153
264005.7644
251365.8201
238702.871
226106.5948
213663.2
201441.5314
189494.4593
177874.0907
166612.5755
155737.41
145270.672
135230.8924
125625.084
116459.8342
107738.1399
99460.37259
91624.11681
84224.61054
77255.82412
70709.78772
64577.24984
58847.68357
53510.3336
48552.20459
43959.57209
39719.65567
35817.586
32238.9463
28968.90345
25993.69672
23299.33539
20873.62373
18706.22154
16789.55878
15120.60465
13703.22335
12550.65086
11689.44486
11162.50092
352662.6791
350826.9362
346931.3653
341262.0113
334034.3454
325448.2668
315708.3046
305020.0636
293576.1634
281545.9421
269107.8128
256396.1022
243553.6492
230683.9102
217899.6415
205273.1851
192880.0782
180781.5382
169020.3656
157635.747
146660.3247
136116.2161
126019.3437
116382.003
107211.9283
98513.51546
90287.37165
82531.28622
75240.90492
68409.08434
62028.5433
56086.54451
50570.77216
45468.54885
40763.04088
36439.15566
32478.23373
28862.41043
25573.12978
22591.03743
19896.78748
17471.4734
15296.6505
13355.31363
11631.87479
10114.44441
8796.777363
7683.195348
6798.853001
6216.699357
347120.5078
345268.8345
341339.8448
335624.8091
328330.9762
319666.2845
309837.13
299058.7051
287509.3343
275374.8063
262823.512
249999.9361
237042.337
224064.1953
211165.197
198437.724
185948.2575
173758.6533
161923.3243
150478.909
139458.0625
128886.3119
118783.2369
109162.4891
100033.5828
91401.53215
83267.35464
75629.32934
68482.00507
61819.59713
55629.27541
49899.06513
44614.41772
39758.21804
35312.23413
31256.99556
27571.05203
24233.05778
21220.59128
18510.94372
16081.37373
13909.12379
11971.55212
10246.41681
8711.678964
7345.244112
6124.885097
5028.262165
4033.214306
3120.345008
341826.5566
339978.6851
336053.946
330338.3456
323042.2742
314372.9962
304543.074
293753.2062
282188.0115
270040.4912
257464.7482
244619.7493
231630.4745
218625.7928
205697.7039
192939.2641
180427.4375
168220.856
156372.8615
144927.2563
133920.1261
123377.582
113320.2931
103763.7784
94718.85865
86191.55823
78183.16623
70690.78796
63708.46667
57228.15555
51236.32972
45718.69423
40657.37659
36034.2091
31826.97815
28013.34668
24570.2215
21473.35733
18698.12906
16219.9844
14014.86646
12058.75925
10328.92205
8803.230798
7460.752487
6282.018228
5248.896807
4345.084926
3556.041049
2868.897294
336550.4414
334701.4205
330773.3976
325052.0283
317747.3023
309066.8678
299227.4821
288417.695
276833.3294
264660.7466
252056.906
239183.0591
226165.5263
213128.1338
200175.8939
187395.5967
174866.8252
162657.2812
150818.5401
139396.6239
128428.6107
117944.224
107965.7587
98510.01666
89587.43578
81203.50109
73359.99257
66053.04236
59273.9801
53012.41616
47252.65264
41977.67121
37166.7403
32797.55457
28846.18672
25287.39909
22095.1647
19243.08637
16704.65933
14453.65487
12465.08073
10714.26327
9178.077644
7834.606675
6663.421505
5645.682495
4764.161823
4003.238085
3348.823318
2788.010175
331283.7864
329430.4998
325493.1241
319757.5145
312433.7055
303736.563
293868.4178
283025.6359
271411.9517
259199.9652
246562.2487
233647.0731
220597.3312
207526.9012
194549.643
181756.0566
169224.1322
157022.8474
145210.3741
133835.5372
122935.4744
112540.8253
102675.2471
93356.9697
84594.64875
76393.22478
68751.40316
61665.48615
55122.77952
49110.18495
43608.46077
38598.14911
34054.52031
29951.95564
26263.69394
22961.90824
20017.9348
17403.43879
15090.49764
13051.93144
11261.52361
9694.515737
8327.651006
7139.138459
6108.966368
5218.843209
4452.022424
3793.465244
3229.534052
2747.913335
326025.1942
324164.8565
320212.4779
314454.7077
307105.5542
298377.144
288468.6333
277584.8953
265927.2334
253666.6574
240986.6153
228028.3374
214940.4997
201842.9039
188844.1615
176043.9016
163523.543
151352.2744
139590.3618
128287.402
117483.8261
107210.8463
97492.37025
88343.95773
79775.22983
71789.75257
64382.2868
57545.04872
51263.90802
45520.97569
40294.06725
35559.43109
31289.35454
27454.95666
24026.72562
20974.11618
18266.78538
15875.0118
13769.43414
11922.41796
10307.50154
8900.056431
7676.939597
6617.016864
5700.999984
4911.311452
4232.120474
3649.242102
3149.923908
2722.723858
320773.7265
318903.907
314931.5149
309145.2526
301765.1645
292992.1668
283033.431
272102.8544
260388.833
248079.2217
235345.0716
222345.4409
209217.1156
196096.4546
183089.5156
170295.2576
157799.886
145677.7981
133990.4007
122787.5602
112109.9827
101990.1767
92450.89242
83505.45929
75161.00477
67417.90709
60269.54193
53702.25878
47699.41472
42238.34336
37293.69954
32837.16788
28838.43301
25265.87336
22087.25469
19270.29584
16783.14985
14594.82015
12675.99424
10998.67147
9536.744636
8265.87069
7163.908933
6210.491746
5387.28704
4677.77769
4067.206985
3542.423086
3091.739541
2704.756082
315528.8501
313647.4573
309650.7247
303836.3412
296411.4316
287585.9151
277572.6351
266584.0662
254807.4513
242444.1936
229655.2246
216613.5548
203455.836
190313.9423
177309.47
164539.0723
152091.0893
140041.2692
128452.6513
117376.9578
106854.5477
96916.31546
87582.65432
78867.15242
70772.3314
63293.52907
56421.94998
50138.5943
44423.0299
39248.62225
34586.08756
30403.61248
26668.11216
23345.7413
20402.12029
17803.67836
15517.72671
13513.14896
11760.57546
10232.22604
8902.865129
7748.896309
6749.116095
5884.448115
5137.605735
4493.250489
3937.771767
3459.121644
3046.652735
2690.968033
310290.4058
308397.3872
304378.0537
298523.2373
291047.5718
282163.244
272093.0409
261037.5232
249200.8045
236775.6347
223938.8623
210852.4871
197672.464
184526.6485
171535.2004
158803.1813
146423.079
134469.1863
123005.4594
112083.1596
101743.3076
92014.20011
82913.02359
74448.68982
66622.50138
59424.61628
52840.594
46848.29206
41422.85534
36533.52005
32147.41483
28229.82237
24745.43394
21658.28504
18932.84805
16534.81488
14431.19002
12591.22908
10985.66975
9587.862421
8373.213004
7319.484398
6406.523068
5616.513354
4933.353837
4342.891072
3832.644276
3391.643938
3010.218516
2679.879906
305064.7596
303157.8066
299107.4538
293208.2263
285677.2435
276734.2941
266598.1889
255472.7114
243575.2863
231088.0356
218206.6767
205088.1259
191889.4882
178752.5321
165794.3103
153122.8014
140830.6752
128995.5814
117681.4169
106938.2667
96804.30128
87304.8844
78456.87575
70262.80294
62718.29987
55811.14711
49520.5949
43821.02649
38683.06101
34072.34538
29952.918
26287.88744
23039.87638
20171.53015
17646.82484
15431.10879
13491.85374
11798.57835
10322.96758
9039.440014
7924.455062
6957.078901
6118.418889
5391.871108
4762.517392
4217.376514
3745.042256
3335.460232
2979.876926
2670.665025
299846.9015
297924.0632
293840.4958
287893.9557
280304.4935
271302.4719
261095.7721
249904.8797
237942.1218
225403.0809
212475.8393
199335.4629
186134.8977
173016.6774
160107.971
147516.9359
135335.9105
123643.0297
112501.1126
101959.809
92054.59625
82806.20895
74225.54921
66314.4152
59060.98113
52449.03279
46452.67053
41042.86968
36185.64012
31843.69234
27978.61638
24551.71112
21524.07126
18857.77119
16516.56776
14466.02022
12674.29304
11111.60572
9750.855188
8567.582149
7539.536021
6647.011804
5872.446277
5200.355729
4617.037576
4110.58752
3670.476195
3287.63219
2954.052264
2662.818846
294636.769
292697.3097
288579.0676
282583.3876
274940.8881
265871.2583
255593.7358
244340.3179
232313.5922
219728.6696
206767.058
193611.9774
180424.3065
167345.7629
154504.9617
142013.2372
129964.412
118435.9182
107488.6761
97168.99673
87507.95591
78525.63267
70226.17623
62604.72983
55647.16664
49330.31875
43624.83683
38498.1122
33911.81037
29826.39093
26201.70369
22997.47616
20173.94372
17693.13676
15518.91722
13617.59542
11958.12047
10511.7926
9252.712488
8157.676437
7205.784974
6378.5446
5659.710144
5034.805043
4491.337838
4018.235069
3605.998713
3246.203303
2931.660253
2656.012601
289435.4661
287478.993
283325.3453
277283.8359
269583.7886
260446.914
250105.3149
238787.2686
226707.1835
214078.4937
201096.2713
187939.6032
174775.9636
161754.3591
149001.9543
136630.8766
124734.9844
113390.2063
102655.5138
92575.89292
83175.90427
74469.25715
66458.44031
59131.30793
52469.44462
46444.3311
41023.66311
36170.05425
31842.80969
28000.34327
24601.11402
21603.79604
18968.45933
16657.31165
14634.75556
12868.01903
11327.04395
9984.465517
8815.613847
7798.526906
6913.679342
6143.7597
5473.685648
4890.073596
4381.335608
3937.410552
3549.449031
3209.847423
2911.965327
2650.021213
284244.3663
282270.823
278084.7339
271997.7513
264237.9628
255035.808
244635.2701
233255.7202
221131.4958
208467.9573
195475.3228
182334.5675
169213.8388
156264.3042
143617.9944
131386.8953
119663.8623
108522.3511
98018.30077
88189.90566
79061.03079
70639.62655
62920.11241
55888.3303
49518.45777
43778.99416
38633.90122
34041.92848
29960.49514
26346.645
23157.67783
20351.77985
17889.32101
15732.91328
13847.90532
12202.51531
10767.88505
9517.984201
8429.400422
7481.453348
6655.910303
5936.623045
5309.484459
4762.240442
4284.136054
3865.849949
3499.336178
3177.569204
2894.443946
2644.684827
11609.04512
10269.92337
9102.970674
8086.038613
7199.683397
6426.77297
5752.429046
5163.435334
4648.404271
4197.438267
3801.972545
3454.522614
3148.638388
2878.710224
2639.886321
)
;

boundaryField
{
    front_top
    {
        type            wedge;
    }
    front_middle
    {
        type            wedge;
    }
    front_bottom
    {
        type            wedge;
    }
    back_top
    {
        type            wedge;
    }
    back_middle
    {
        type            wedge;
    }
    back_bottom
    {
        type            wedge;
    }
    axis_top
    {
        type            symmetryPlane;
    }
    axis_middle
    {
        type            symmetryPlane;
    }
    axis_bottom
    {
        type            symmetryPlane;
    }
    wall_top
    {
        type            calculated;
        value           nonuniform List<scalar> 10(59801.68206 55979.60606 51299.04417 45685.12064 39173.63542 31973.42977 24499.80012 17335.54165 11089.75368 6193.44042);
    }
    wall_middle
    {
        type            calculated;
        value           uniform 2530.329233;
    }
    wall_bottom
    {
        type            calculated;
        value           nonuniform 0();
    }
    inlet
    {
        type            calculated;
        value           nonuniform 0();
    }
    outlet
    {
        type            calculated;
        value           nonuniform 0();
    }
    procBoundary5to4
    {
        type            processor;
        value           nonuniform List<scalar> 
51
(
279066.7376
277079.0862
272860.957
266725.6538
258908.3415
249650.0595
239189.6093
227759.3027
215595.6948
202914.0762
189919.9821
176808.8395
163748.6656
150891.8533
138371.1903
126298.4113
114764.6618
103840.8476
93580.43022
84016.78482
75166.43177
67033.29632
59606.98538
52866.85533
46783.12485
41321.21839
36440.32458
32097.29193
28247.79828
24847.87437
21854.11619
19224.79671
16920.75559
14905.32888
13144.98468
13144.98468
11077.57038
9824.444756
8731.837126
7779.055207
6947.743485
6221.903643
5587.574197
5032.561615
4546.308212
4119.604076
3744.503817
3414.122898
3122.508291
2864.47226
2635.537522
)
;
    }
    procBoundary5to6
    {
        type            processor;
        value           nonuniform List<scalar> 
51
(
424666.9379
422967.7124
412003.1621
412003.1621
406771.744
400080.8474
392112.9414
383049.848
373079.3908
362369.4238
351077.7044
339359.9131
327361.3336
315194.1677
302977.6752
290805.8985
278756.0658
266909.9753
255311.319
244020.0636
233061.0137
222471.9023
212264.685
202459.8099
193059.0375
184071.5214
175489.8104
167315.9166
159536.1869
152148.8872
145135.8376
138492.7624
132199.677
126249.3234
120623.1503
115310.8774
110295.531
105565.5642
101105.4761
96902.90825
92943.08398
89213.75981
85701.14143
82393.4296
79277.14151
76341.44014
73572.7597
70961.64188
68494.79093
66164.46744
63957.82062
)
;
    }
}


// ************************************************************************* //
