/*--------------------------------*- C++ -*----------------------------------*\
  =========                 |
  \\      /  F ield         | OpenFOAM: The Open Source CFD Toolbox
   \\    /   O peration     | Website:  https://openfoam.org
    \\  /    A nd           | Version:  7
     \\/     M anipulation  |
\*---------------------------------------------------------------------------*/
FoamFile
{
    version     2.0;
    format      ascii;
    class       volScalarField;
    location    "0.0006";
    object      thermo:alpha;
}
// * * * * * * * * * * * * * * * * * * * * * * * * * * * * * * * * * * * * * //

dimensions      [1 -1 -1 0 0 0 0];

internalField   nonuniform List<scalar> 
1167
(
0.0001211498205
0.0001211472214
0.0001211386686
0.000121136027
0.000121130369
0.0001211220149
0.0001211111496
0.0001210979368
0.0001210825389
0.0001210651084
0.0001210457723
0.0001210246641
0.0001209991537
0.0001209714901
0.0001209418874
0.0001209073826
0.0001208713514
0.0001208367025
0.000120802307
0.0001207649757
0.0001207241514
0.0001206808293
0.0001206335512
0.000120587027
0.0001205430624
0.0001204966167
0.0001204466204
0.0001203961637
0.0001203453296
0.0001202942049
0.0001202428517
0.0001201873765
0.000120130666
0.0001200788504
0.0001200268143
0.000119970412
0.0001199156363
0.0001198649119
0.0001198124981
0.0001197576516
0.0001197060059
0.0001196573114
0.000119609308
0.0001195620467
0.0001195127
0.0001194625126
0.0001194158659
0.000119372026
0.0001193271781
0.0001192809119
0.0001192355843
0.000119191182
0.0001211275962
0.000121124905
0.000121119141
0.00012111063
0.0001210995597
0.0001210860999
0.0001210704196
0.0001210526512
0.0001210329353
0.0001210099731
0.0001209835181
0.0001209552798
0.0001209229967
0.0001208877375
0.0001208517853
0.0001208177528
0.00012078253
0.0001207417831
0.0001206998973
0.0001206526786
0.0001206040602
0.0001205592207
0.0001205136847
0.0001204626536
0.000120410961
0.0001203587287
0.0001203060087
0.0001202528955
0.0001201962777
0.0001201372423
0.0001200825385
0.000120028175
0.0001199689098
0.0001199115291
0.0001198579345
0.0001198015614
0.0001197433545
0.0001196899233
0.0001196381122
0.0001195870434
0.000119536003
0.00011948173
0.0001194297376
0.0001193825219
0.0001193352903
0.0001192859505
0.0001192379518
0.0001191913313
0.0001191460187
0.0001191020053
0.0001211165915
0.0001211138429
0.000121107956
0.0001210992629
0.0001210879558
0.0001210742189
0.0001210581943
0.0001210400305
0.0001210196166
0.000120994517
0.0001209674379
0.0001209377283
0.000120903349
0.0001208671838
0.0001208326514
0.0001207976801
0.000120758879
0.000120716893
0.0001206712024
0.0001206220511
0.0001205747299
0.0001205285355
0.0001204777193
0.0001204246167
0.0001203707584
0.0001203161741
0.0001202609771
0.0001202026029
0.0001201407494
0.000120082919
0.0001200252419
0.000119962357
0.0001199020529
0.0001198447019
0.000119782658
0.0001197209854
0.0001196642733
0.0001196080377
0.0001195524278
0.0001194929365
0.0001194343961
0.0001193816889
0.000119328472
0.000119273479
0.0001192202179
0.0001191688122
0.0001191193419
0.0001190718475
0.000119025006
0.0001189773833
0.000121105643
0.0001211028284
0.0001210968002
0.0001210878989
0.0001210763319
0.0001210622577
0.0001210458344
0.0001210272113
0.0001210044166
0.0001209786554
0.0001209508439
0.0001209182021
0.000120882834
0.0001208470722
0.0001208124241
0.0001207755796
0.0001207335328
0.0001206893512
0.0001206396605
0.000120589865
0.0001205427472
0.0001204922062
0.00012043757
0.0001203818966
0.000120325225
0.0001202676672
0.0001202070297
0.0001201419135
0.0001200806913
0.00012001882
0.000119951583
0.0001198879679
0.0001198250323
0.0001197565578
0.0001196919368
0.0001196295475
0.0001195673483
0.0001195016077
0.0001194348591
0.0001193744124
0.0001193117029
0.0001192478009
0.0001191856894
0.0001191256306
0.0001190679412
0.000119010338
0.0001189533075
0.000118899505
0.0001188489756
0.0001188016549
0.0001210947397
0.0001210918497
0.0001210856648
0.0001210765352
0.0001210646539
0.0001210501929
0.0001210333113
0.0001210131105
0.0001209888585
0.0001209623299
0.0001209322848
0.0001208978681
0.0001208613395
0.0001208268441
0.0001207909636
0.0001207499817
0.0001207062908
0.0001206571588
0.0001206053081
0.0001205568583
0.0001205065371
0.0001204502899
0.0001203926872
0.0001203337823
0.0001202736504
0.0001202103967
0.0001201416658
0.0001200767902
0.0001200100384
0.0001199378222
0.0001198704895
0.0001197998218
0.0001197254464
0.0001196566047
0.000119587247
0.0001195148295
0.0001194382675
0.0001193684776
0.0001192941089
0.0001192184162
0.0001191438458
0.0001190708775
0.0001189962696
0.000118921717
0.0001188506167
0.0001187835106
0.000118720913
0.0001186632462
0.0001186107191
0.0001185607183
0.0001210838783
0.0001210809071
0.0001210745432
0.0001210651419
0.0001210529034
0.0001210380017
0.000121020447
0.0001209979321
0.0001209728945
0.0001209454826
0.0001209122731
0.000120876632
0.0001208409963
0.0001208054563
0.0001207663821
0.0001207225728
0.0001206748
0.0001206222481
0.0001205711958
0.0001205206099
0.0001204632685
0.0001204036961
0.0001203424851
0.0001202796657
0.0001202136279
0.0001201410556
0.0001200722952
0.0001200002384
0.0001199232204
0.0001198511661
0.0001197719017
0.0001196933829
0.000119617169
0.0001195392478
0.0001194528307
0.0001193723091
0.0001192864457
0.0001191976036
0.0001191085635
0.0001190178616
0.0001189217765
0.0001188272281
0.0001187350261
0.0001186461015
0.0001185586637
0.0001184728141
0.0001183940586
0.0001183210043
0.0001182545563
0.0001181981801
0.0001210730497
0.0001210699823
0.0001210634124
0.0001210537045
0.0001210410625
0.0001210256623
0.00012100571
0.0001209824107
0.000120956478
0.0001209259901
0.0001208914503
0.0001208549006
0.0001208198586
0.000120782792
0.0001207390549
0.0001206928023
0.0001206396702
0.0001205860587
0.0001205343729
0.000120476973
0.0001204154691
0.0001203519665
0.0001202864462
0.0001202176523
0.000120141153
0.0001200683251
0.000119990834
0.0001199095277
0.0001198313362
0.0001197434217
0.0001196603519
0.0001195762128
0.0001194845281
0.0001193923473
0.0001192975101
0.000119196195
0.0001190930227
0.0001189834687
0.0001188677425
0.000118751141
0.0001186343258
0.0001185116861
0.0001183876313
0.0001182601205
0.0001181356213
0.0001180189872
0.0001179128059
0.0001178183788
0.000117735347
0.0001176708768
0.0001210622367
0.0001210590617
0.0001210522609
0.0001210422092
0.0001210291142
0.0001210119647
0.0001209906944
0.0001209665095
0.0001209389039
0.000120905723
0.0001208697418
0.0001208341835
0.0001207975576
0.0001207558401
0.0001207098815
0.0001206577954
0.0001206017352
0.0001205490447
0.0001204918168
0.0001204285063
0.0001203628042
0.0001202946669
0.000120223334
0.0001201429631
0.0001200659401
0.0001199831784
0.0001198974031
0.0001198116133
0.0001197179367
0.0001196286254
0.0001195355584
0.0001194317302
0.0001193319445
0.000119220364
0.0001191053645
0.0001189820729
0.0001188492248
0.0001187128909
0.0001185715178
0.0001184171773
0.0001182530431
0.0001180823805
0.0001179114297
0.0001177351051
0.0001175581256
0.0001173871255
0.0001172215079
0.0001170767677
0.0001169585806
0.0001168721224
0.000121051431
0.0001210481361
0.0001210410782
0.0001210306433
0.0001210163968
0.000120997495
0.0001209753722
0.0001209501938
0.0001209193155
0.0001208846858
0.0001208483917
0.000120812427
0.0001207729742
0.0001207271599
0.0001206767794
0.000120620202
0.0001205648709
0.0001205081382
0.0001204432169
0.0001203754883
0.0001203049073
0.0001202314214
0.0001201473622
0.0001200660696
0.0001199784629
0.0001198881094
0.0001197951787
0.0001196966541
0.0001196002396
0.0001194955951
0.0001193865559
0.0001192713789
0.0001191476963
0.0001190172824
0.0001188716711
0.0001187204933
0.0001185610117
0.0001183847504
0.0001181903728
0.0001179869558
0.0001177726273
0.0001175411733
0.0001172960251
0.0001170389908
0.0001167676179
0.0001164950363
0.0001162279177
0.0001159705745
0.0001157599406
0.0001156180354
0.0001210406257
0.0001210371976
0.0001210298547
0.0001210186214
0.000121002484
0.0001209827887
0.0001209597169
0.0001209320207
0.0001208990747
0.0001208628228
0.0001208273416
0.0001207895595
0.0001207450309
0.0001206966871
0.0001206398779
0.0001205820214
0.000120525162
0.0001204599067
0.0001203904015
0.0001203176275
0.0001202415228
0.0001201550585
0.0001200694678
0.0001199776561
0.0001198826727
0.0001197833479
0.0001196799162
0.0001195767982
0.0001194615676
0.0001193472107
0.0001192179967
0.0001190830062
0.0001189329474
0.0001187721127
0.0001186040002
0.0001184142848
0.0001182043039
0.0001179798861
0.0001177383983
0.000117475092
0.0001171842554
0.0001168693788
0.0001165267892
0.0001161540004
0.0001157448086
0.000115308376
0.0001148397577
0.0001143511568
0.0001138806267
0.000113525372
0.0001210302134
0.0001210266923
0.000121018793
0.000121006069
0.0001209894666
0.000120969189
0.0001209454139
0.0001209150378
0.0001208810092
0.000120845226
0.000120808924
0.0001207681607
0.0001207209467
0.0001206677408
0.0001206083899
0.0001205511626
0.0001204888205
0.0001204190508
0.0001203457221
0.0001202687215
0.0001201836004
0.0001200938173
0.000120002265
0.0001199026735
0.000119802278
0.0001196938867
0.0001195870555
0.0001194682085
0.0001193485584
0.0001192135081
0.0001190719371
0.0001189128768
0.0001187431434
0.0001185626516
0.0001183602948
0.0001181319146
0.0001178916532
0.0001176247781
0.0001173342569
0.0001170141293
0.0001166566594
0.0001162675202
0.0001158328394
0.0001153512894
0.0001148063517
0.0001141825513
0.0001134657272
0.0001126021228
0.0001115478826
0.0001101695604
0.0001210198654
0.0001210157846
0.000121007033
0.0001209940774
0.0001209771633
0.0001209564907
0.0001209306759
0.0001208995955
0.0001208648019
0.0001208300331
0.0001207928173
0.0001207489041
0.0001207003466
0.0001206432065
0.000120583899
0.0001205254434
0.0001204578906
0.0001203854767
0.000120309185
0.0001202286576
0.0001201358605
0.0001200464606
0.0001199454176
0.0001198462696
0.0001197345839
0.0001196267953
0.000119510913
0.0001193862377
0.0001192534606
0.0001191101908
0.0001189525314
0.0001187804772
0.0001185999696
0.0001183951108
0.0001181661036
0.0001179224072
0.0001176540452
0.0001173616503
0.0001170379665
0.0001166788238
0.0001162875909
0.0001158549647
0.0001153765529
0.0001148422517
0.0001142429605
0.0001135671688
0.0001127971049
0.0001119151064
0.0001108890999
0.0001096724683
0.0001210081465
0.00012100399
0.0001209950725
0.0001209818655
0.0001209646133
0.0001209433352
0.0001209155239
0.0001208837416
0.0001208493216
0.00012081436
0.0001207753983
0.0001207289474
0.0001206770388
0.0001206176852
0.0001205591237
0.0001204967553
0.000120425622
0.0001203504459
0.0001202711022
0.0001201830827
0.000120089972
0.000119993732
0.0001198904517
0.0001197833039
0.0001196710377
0.0001195580255
0.0001194299952
0.0001193011863
0.0001191573701
0.0001190033809
0.0001188306352
0.0001186494777
0.0001184481201
0.0001182227091
0.0001179788064
0.0001177147655
0.000117427368
0.0001171058002
0.000116754609
0.0001163696293
0.000115950978
0.0001154909446
0.0001149835032
0.0001144225734
0.0001138013038
0.0001131210601
0.0001123548076
0.0001115099609
0.0001105668986
0.0001095008565
0.000120996238
0.0001209919961
0.0001209828931
0.0001209694058
0.0001209517773
0.0001209283964
0.0001208999342
0.0001208673761
0.0001208339717
0.0001207980744
0.0001207559119
0.0001207080864
0.0001206521806
0.0001205919389
0.000120533062
0.0001204654321
0.0001203916524
0.00012031354
0.0001202309367
0.0001201351139
0.000120042555
0.0001199370499
0.0001198344006
0.0001197179376
0.0001196052897
0.0001194811547
0.0001193532288
0.0001192101862
0.0001190595526
0.0001188889009
0.0001187081868
0.0001185124895
0.0001182931809
0.0001180508173
0.0001177942623
0.0001175099905
0.0001171984629
0.0001168594375
0.0001164895167
0.0001160851381
0.0001156452986
0.0001151672871
0.0001146442332
0.0001140719009
0.0001134550807
0.000112771128
0.0001120338015
0.000111229699
0.0001103636738
0.00010941354
0.0001209841306
0.0001209797939
0.0001209704856
0.0001209566885
0.0001209378728
0.0001209130716
0.0001208838945
0.0001208514225
0.0001208180822
0.0001207810154
0.0001207356247
0.0001206851991
0.000120626181
0.0001205666849
0.0001205046269
0.0001204325498
0.0001203559898
0.0001202748311
0.0001201847141
0.0001200887825
0.0001199890199
0.0001198826615
0.0001197704411
0.0001196550653
0.0001195367278
0.0001194044811
0.0001192673822
0.0001191176255
0.0001189533365
0.0001187738702
0.0001185852503
0.000118372308
0.000118133875
0.0001178834851
0.0001176066316
0.0001173071744
0.0001169823226
0.0001166232414
0.0001162407287
0.0001158202896
0.0001153700464
0.000114879412
0.0001143481703
0.0001137736816
0.0001131626332
0.0001124945709
0.0001117858545
0.0001110259752
0.0001102229448
0.0001093578948
0.0001209718154
0.0001209673749
0.000120957842
0.0001209435527
0.0001209227955
0.0001208973543
0.0001208674
0.0001208359473
0.0001208016531
0.0001207613409
0.0001207145444
0.0001206600612
0.0001205992962
0.0001205403122
0.000120472938
0.0001203981996
0.0001203187191
0.0001202343929
0.0001201364805
0.0001200412447
0.0001199323961
0.0001198261624
0.0001197068662
0.0001195903511
0.0001194601967
0.0001193280753
0.0001191796516
0.0001190226008
0.0001188448888
0.0001186590383
0.0001184539451
0.0001182249778
0.0001179782901
0.0001177129725
0.0001174265966
0.0001171091279
0.0001167666386
0.0001163967339
0.0001159989967
0.0001155722955
0.0001151123963
0.0001146173244
0.0001140853989
0.0001135213726
0.0001129144694
0.0001122703289
0.0001115895373
0.0001108687393
0.0001101165503
0.000109317821
0.0001209592842
0.0001209547312
0.0001209449537
0.0001209286788
0.000120907372
0.0001208812399
0.0001208513882
0.0001208200047
0.0001207846877
0.0001207409796
0.0001206922639
0.0001206339513
0.000120573933
0.0001205125434
0.0001204399395
0.0001203624462
0.0001202799679
0.0001201885009
0.0001200901744
0.000119987923
0.0001198789628
0.0001197630911
0.0001196451579
0.0001195220773
0.0001193876026
0.0001192448026
0.0001190910591
0.0001189200697
0.0001187365637
0.000118540829
0.0001183220766
0.0001180793429
0.0001178261867
0.0001175454204
0.0001172428595
0.0001169172761
0.0001165641566
0.0001161891006
0.0001157785158
0.0001153467065
0.0001148804828
0.0001143823498
0.000113851716
0.0001132971287
0.0001127000053
0.0001120786527
0.0001114244273
0.000110742107
0.0001100298839
0.0001092868503
0.0001209465291
0.0001209414751
0.00012093021
0.0001209134935
0.0001208915974
0.0001208647257
0.0001208359193
0.0001208035979
0.0001207653306
0.0001207199441
0.0001206671831
0.0001206068999
0.0001205476323
0.0001204809576
0.00012040572
0.0001203253633
0.0001202398062
0.0001201406941
0.0001200431743
0.0001199321056
0.000119823178
0.0001197014855
0.0001195821309
0.0001194478995
0.0001193124825
0.0001191607692
0.0001189985485
0.0001188175988
0.0001186288971
0.0001184187173
0.000118185012
0.0001179372533
0.0001176690693
0.0001173814535
0.0001170674641
0.0001167283494
0.0001163652872
0.0001159798123
0.000115568631
0.000115130298
0.0001146639267
0.0001141689252
0.0001136454212
0.000113098942
0.0001125150747
0.0001119126347
0.000111283437
0.000110636807
0.0001099587111
0.0001092618047
0.0001209321466
0.0001209267564
0.0001209151783
0.0001208979912
0.0001208754681
0.0001208490443
0.000120820046
0.0001207867321
0.0001207451097
0.0001206982516
0.0001206412869
0.0001205812016
0.0001205204377
0.0001204482922
0.0001203703639
0.0001202870934
0.0001201950968
0.000120094733
0.0001199910448
0.0001198798332
0.0001197616561
0.0001196415183
0.0001195153941
0.0001193790441
0.0001192326907
0.0001190763523
0.0001189014295
0.0001187156509
0.0001185162203
0.0001182941584
0.0001180508786
0.0001177961882
0.0001175172433
0.0001172163313
0.000116894793
0.0001165495911
0.0001161843931
0.0001157883856
0.0001153747459
0.0001149320718
0.0001144641814
0.0001139709503
0.0001134614864
0.0001129182952
0.0001123532167
0.0001117686796
0.0001111623525
0.0001105445701
0.0001098986419
0.0001092408947
0.0001209173053
0.0001209117617
0.0001208998521
0.0001208821673
0.0001208589816
0.0001208336582
0.0001208037722
0.0001207678246
0.0001207243195
0.0001206736766
0.0001206146072
0.0001205552843
0.0001204898477
0.0001204146241
0.0001203339323
0.0001202476943
0.0001201482782
0.0001200487979
0.0001199366218
0.0001198257957
0.0001197019845
0.0001195806416
0.0001194440193
0.000119306385
0.0001191525467
0.0001189874678
0.000118804717
0.0001186146158
0.0001184023102
0.0001181670953
0.0001179200129
0.0001176524506
0.0001173671009
0.000117058076
0.0001167255093
0.000116372016
0.0001159986131
0.0001156039113
0.0001151866325
0.0001147465334
0.0001142818327
0.0001137915623
0.0001132884834
0.0001127550593
0.0001122098016
0.0001116420928
0.0001110565718
0.0001104637616
0.0001098469304
0.0001092230216
0.0001209021892
0.0001208964842
0.000120884226
0.0001208660181
0.0001208440027
0.0001208179182
0.0001207871033
0.0001207478908
0.000120702977
0.0001206482379
0.0001205886091
0.0001205286348
0.0001204578727
0.0001203800555
0.0001202965535
0.0001202048987
0.0001201028132
0.0001199987411
0.0001198855358
0.0001197663213
0.0001196441805
0.0001195165169
0.0001193784261
0.0001192302842
0.0001190723722
0.000118895636
0.0001187087634
0.0001185080819
0.0001182853338
0.0001180427977
0.0001177893181
0.0001175133027
0.0001172166108
0.0001169014556
0.0001165643562
0.0001162112412
0.0001158294148
0.0001154314581
0.000115010811
0.0001145696193
0.0001141080924
0.0001136279954
0.0001131316482
0.0001126080512
0.0001120765829
0.0001115293185
0.0001109629973
0.0001103926112
0.0001098016488
0.0001092074658
0.0001208867915
0.0001208809177
0.0001208682951
0.0001208505817
0.0001208287165
0.0001208018274
0.0001207685332
0.0001207274743
0.0001206794195
0.0001206221504
0.0001205633072
0.0001204997196
0.000120425085
0.0001203446312
0.0001202582965
0.0001201595062
0.0001200583523
0.0001199461649
0.0001198341642
0.000119708401
0.0001195857868
0.0001194482565
0.0001193092396
0.0001191541415
0.0001189880478
0.0001188044441
0.0001186138899
0.0001184015708
0.000118167043
0.0001179215111
0.0001176567032
0.0001173756391
0.0001170719019
0.0001167473203
0.0001164043457
0.0001160424673
0.0001156631825
0.000115265458
0.0001148470311
0.0001144057053
0.0001139464209
0.0001134780753
0.0001129859291
0.0001124747109
0.0001119557316
0.0001114239507
0.0001108792558
0.0001103292656
0.0001097614746
0.0001091937323
0.000120871106
0.0001208650568
0.0001208528161
0.0001208356471
0.0001208131129
0.0001207853902
0.0001207489603
0.0001207065904
0.0001206545962
0.0001205960437
0.0001205374088
0.0001204686962
0.0001203915893
0.0001203084557
0.0001202180513
0.0001201145523
0.0001200111469
0.0001198961553
0.0001197771079
0.0001196530685
0.0001195252215
0.0001193853804
0.0001192369546
0.000119078221
0.0001189013646
0.0001187141783
0.0001185140616
0.0001182924901
0.0001180513613
0.000117800857
0.0001175281471
0.0001172370982
0.0001169294539
0.0001165999316
0.0001162558181
0.0001158898417
0.0001155064763
0.0001151057978
0.0001146880383
0.0001142533571
0.0001137968484
0.0001133344686
0.0001128489373
0.0001123529486
0.0001118458776
0.0001113284675
0.000110803693
0.0001102722955
0.0001097254572
0.0001091814686
0.0001157387834
0.0001153585932
0.0001149557555
0.0001145376173
0.0001141047956
0.000113657977
0.0001132008542
0.0001127227639
0.0001122411767
0.0001117453391
0.0001112414241
0.000110735009
0.0001102206372
0.0001096928895
0.0001091704154
)
;

boundaryField
{
    front_top
    {
        type            wedge;
    }
    front_middle
    {
        type            wedge;
    }
    front_bottom
    {
        type            wedge;
    }
    back_top
    {
        type            wedge;
    }
    back_middle
    {
        type            wedge;
    }
    back_bottom
    {
        type            wedge;
    }
    axis_top
    {
        type            symmetryPlane;
    }
    axis_middle
    {
        type            symmetryPlane;
    }
    axis_bottom
    {
        type            symmetryPlane;
    }
    wall_top
    {
        type            calculated;
        value           nonuniform List<scalar> 10(0.000119169234 0.000119080427 0.0001189543616 0.0001187793577 0.00011853759 0.0001181747729 0.0001176479713 0.0001168494706 0.0001155978236 0.0001135103622);
    }
    wall_middle
    {
        type            calculated;
        value           uniform 0.0001089022317;
    }
    wall_bottom
    {
        type            calculated;
        value           nonuniform 0();
    }
    inlet
    {
        type            calculated;
        value           nonuniform 0();
    }
    outlet
    {
        type            calculated;
        value           nonuniform 0();
    }
    procBoundary5to4
    {
        type            processor;
        value           nonuniform List<scalar> 
51
(
0.0001208555457
0.0001208500093
0.0001208381084
0.0001208204185
0.0001207971937
0.0001207669229
0.0001207289717
0.0001206840253
0.0001206292322
0.0001205715058
0.0001205104284
0.0001204370236
0.000120357425
0.0001202716153
0.0001201744046
0.0001200718658
0.0001199607494
0.0001198470984
0.000119720649
0.000119597392
0.0001194602898
0.0001193205623
0.000119164871
0.0001189992883
0.0001188154856
0.0001186250922
0.0001184143398
0.0001181820689
0.0001179384801
0.0001176777959
0.0001174022094
0.0001171035604
0.0001167875695
0.0001164552818
0.0001161064586
0.0001161064586
0.0001155944233
0.0001152117025
0.0001148145398
0.0001143965633
0.0001139656893
0.0001135287213
0.0001130768623
0.0001126060195
0.0001121356524
0.0001116529327
0.0001111615978
0.0001106721639
0.0001101734854
0.000109663232
0.0001091603771
)
;
    }
    procBoundary5to6
    {
        type            processor;
        value           nonuniform List<scalar> 
51
(
0.0001211610706
0.0001211585038
0.000121141654
0.000121141654
0.000121133434
0.0001211227437
0.0001211097447
0.0001210945886
0.0001210774364
0.000121058421
0.0001210376671
0.0001210144125
0.0001209872279
0.0001209584765
0.0001209262453
0.0001208908789
0.0001208546833
0.0001208209566
0.0001207862367
0.0001207467278
0.000120705845
0.0001206606286
0.0001206136085
0.0001205694649
0.0001205260126
0.0001204784256
0.0001204292953
0.00012037987
0.0001203301871
0.0001202803685
0.0001202303372
0.0001201754373
0.0001201211945
0.0001200714445
0.0001200207372
0.0001199664897
0.0001199141036
0.0001198654624
0.0001198154287
0.0001197629195
0.0001197128957
0.0001196662648
0.0001196202401
0.0001195748654
0.0001195287158
0.0001194802818
0.0001194334037
0.0001193907643
0.0001193487806
0.0001193034054
0.0001192586322
)
;
    }
}


// ************************************************************************* //
