/*--------------------------------*- C++ -*----------------------------------*\
  =========                 |
  \\      /  F ield         | OpenFOAM: The Open Source CFD Toolbox
   \\    /   O peration     | Website:  https://openfoam.org
    \\  /    A nd           | Version:  7
     \\/     M anipulation  |
\*---------------------------------------------------------------------------*/
FoamFile
{
    version     2.0;
    format      ascii;
    class       volVectorField;
    location    "0.0006";
    object      U;
}
// * * * * * * * * * * * * * * * * * * * * * * * * * * * * * * * * * * * * * //

dimensions      [0 1 -1 0 0 0 0];

internalField   nonuniform List<vector> 
1167
(
(-8.687514105e-06 -3.891116026e-20 -0.002320178322)
(-2.247123274e-05 -1.369260909e-19 -0.002319814162)
(-1.007677626e-05 9.55779235e-20 -0.002346257172)
(-2.605740795e-05 3.416038011e-19 -0.00234584164)
(-4.103337393e-05 2.823604721e-19 -0.002345295477)
(-5.651375396e-05 1.33371901e-19 -0.002344379708)
(-7.163766308e-05 1.003175805e-18 -0.002343134209)
(-8.632690932e-05 -1.049463903e-20 -0.002341555061)
(-0.0001005714573 -3.037453052e-19 -0.0023396232)
(-0.0001143381273 -2.24042565e-19 -0.002337319935)
(-0.0001275964547 -5.407185564e-19 -0.00233462652)
(-0.0001403190204 -3.742826692e-19 -0.002331524237)
(-0.0001524788868 -7.736338584e-19 -0.002327995304)
(-0.0001640491436 -5.436443006e-19 -0.002324023996)
(-0.0001750033553 -7.463222509e-19 -0.002319597009)
(-0.0001853150954 -5.466061515e-19 -0.002314703619)
(-0.0001949580773 -5.464359428e-19 -0.002309336396)
(-0.0002039064377 -5.460891325e-19 -0.002303490931)
(-0.000212134329 -5.501884627e-19 -0.002297166132)
(-0.0002196164977 -5.536204747e-19 -0.002290364362)
(-0.0002263278321 -7.098539033e-19 -0.00228309116)
(-0.0002322438641 -5.344208496e-19 -0.002275355578)
(-0.0002373404246 -5.577354705e-19 -0.002267169801)
(-0.0002415940714 -4.801440007e-19 -0.002258549499)
(-0.0002449818454 -4.259189638e-19 -0.002249513479)
(-0.000247481687 -3.812893762e-19 -0.002240084066)
(-0.0002490722998 -2.34652043e-19 -0.002230286898)
(-0.0002497336279 -1.723062923e-19 -0.002220151249)
(-0.0002494469006 -8.316652958e-20 -0.002209709962)
(-0.0002481951964 -5.724556588e-21 -0.002198999819)
(-0.0002459636925 9.020669811e-20 -0.002188061597)
(-0.0002427404003 1.502979433e-19 -0.002176940428)
(-0.0002385166924 2.171864394e-19 -0.002165685844)
(-0.0002332881936 3.44613121e-19 -0.002154352003)
(-0.0002270556021 3.075506043e-19 -0.002142997686)
(-0.0002198256754 3.504086035e-19 -0.002131686106)
(-0.0002116122264 3.665455678e-19 -0.002120484656)
(-0.0002024371925 3.916658484e-19 -0.002109464151)
(-0.0001923314875 4.276572693e-19 -0.002098698144)
(-0.000181335876 4.695781461e-19 -0.002088261651)
(-0.0001695013747 4.897930695e-19 -0.002078229891)
(-0.000156889611 5.311024073e-19 -0.002068676729)
(-0.0001435724953 5.472290955e-19 -0.002059673312)
(-0.0001296316741 5.434640689e-19 -0.002051286621)
(-0.0001151573885 5.430967896e-19 -0.002043578424)
(-0.0001002471165 5.464442144e-19 -0.002036604401)
(-8.500378839e-05 4.998773407e-19 -0.00203041371)
(-6.953385196e-05 5.59090184e-19 -0.002025048843)
(-5.394524081e-05 5.636246132e-19 -0.002020546032)
(-3.834807399e-05 5.713667545e-19 -0.002016935604)
(-2.285520705e-05 5.799962416e-19 -0.002014241175)
(-7.566142317e-06 5.881377636e-19 -0.002012480193)
(-1.162512897e-05 -8.552395843e-20 -0.00237592274)
(-3.005254817e-05 -3.920209239e-19 -0.002375451023)
(-4.732393781e-05 2.251460753e-19 -0.002374826724)
(-6.518520782e-05 5.132259941e-19 -0.002373781263)
(-8.263545252e-05 4.744270044e-19 -0.002372361873)
(-9.959075101e-05 -4.015991216e-20 -0.002370564377)
(-0.0001160412 -3.475838116e-19 -0.002368367949)
(-0.0001319504946 -6.193800145e-19 -0.002365752417)
(-0.0001472863389 -6.046094046e-19 -0.002362697095)
(-0.0001620199681 -5.97357695e-19 -0.002359181022)
(-0.0001761231511 -4.542634311e-19 -0.002355184161)
(-0.0001895682171 -5.814968736e-19 -0.002350688594)
(-0.0002023279419 -6.824400118e-19 -0.002345678543)
(-0.0002143749977 -6.51775553e-19 -0.002340140988)
(-0.0002256824893 -6.604793113e-19 -0.002334066107)
(-0.0002362234509 -7.097833732e-19 -0.002327447029)
(-0.0002459710968 -6.670849207e-19 -0.002320280386)
(-0.0002548986607 -6.498799018e-19 -0.00231256591)
(-0.0002629793962 -6.65075702e-19 -0.00230430685)
(-0.0002701865677 -5.918875962e-19 -0.002295509556)
(-0.0002764933232 -5.472695331e-19 -0.00228618379)
(-0.0002818727327 -4.972262267e-19 -0.002276342472)
(-0.0002862977016 -4.452664129e-19 -0.002266001936)
(-0.0002897409344 -4.000832446e-19 -0.002255181819)
(-0.0002921750412 -2.982550773e-19 -0.002243905471)
(-0.0002935725395 -2.302701269e-19 -0.002232199864)
(-0.0002939061029 -2.319038615e-19 -0.002220096133)
(-0.0002931487082 -4.503551612e-20 -0.002207629712)
(-0.0002912740919 5.660126223e-20 -0.002194841033)
(-0.0002882572464 1.37616751e-19 -0.002181775771)
(-0.0002840751659 2.226775602e-19 -0.002168485583)
(-0.0002787076953 3.112176586e-19 -0.002155028433)
(-0.000272138737 3.606102442e-19 -0.002141469066)
(-0.0002643574558 3.958030132e-19 -0.002127879327)
(-0.0002553600609 4.064558665e-19 -0.002114338003)
(-0.000245151319 4.27818235e-19 -0.002100930682)
(-0.0002337465285 4.630051469e-19 -0.002087748881)
(-0.000221173341 5.143883849e-19 -0.002074888981)
(-0.000207473381 5.263205693e-19 -0.002062450487)
(-0.0001927038717 5.53091088e-19 -0.002050534129)
(-0.0001769383542 5.546950789e-19 -0.002039239666)
(-0.000160267083 5.541523747e-19 -0.002028663325)
(-0.0001427964227 5.486957508e-19 -0.002018895841)
(-0.0001246474898 5.533559273e-19 -0.002010020321)
(-0.0001059538575 5.503553913e-19 -0.002002111073)
(-8.685844948e-05 5.55246151e-19 -0.001995232789)
(-6.751058679e-05 5.658116208e-19 -0.001989440832)
(-4.806578335e-05 5.752855617e-19 -0.00198478144)
(-2.868167794e-05 5.866571599e-19 -0.001981290124)
(-9.49692572e-06 5.924108745e-19 -0.001978993823)
(-1.333735155e-05 -3.49507233e-19 -0.002409490634)
(-3.446849388e-05 -1.073841936e-18 -0.002408957536)
(-5.427632082e-05 -5.920467215e-19 -0.002408246348)
(-7.476918932e-05 -1.56585939e-19 -0.002407057549)
(-9.478947203e-05 8.921746474e-20 -0.002405446852)
(-0.0001142479423 -2.35705075e-19 -0.002403410009)
(-0.0001331350177 -4.41310756e-19 -0.00240092496)
(-0.0001514113513 -6.549891307e-19 -0.002397970269)
(-0.0001690429911 -6.757336503e-19 -0.002394523484)
(-0.0001859999655 -7.143763998e-19 -0.002390561597)
(-0.0002022534868 -2.016874919e-19 -0.002386062793)
(-0.0002177758489 -6.330106835e-19 -0.002381006881)
(-0.0002325395689 -7.493573904e-19 -0.002375375722)
(-0.0002465175937 -7.155140649e-19 -0.002369154167)
(-0.0002596831831 -7.245180571e-19 -0.002362329753)
(-0.0002720094737 -7.465204208e-19 -0.002354893177)
(-0.0002834698422 -7.350645575e-19 -0.00234683833)
(-0.0002940372504 -7.092418412e-19 -0.002338162092)
(-0.0003036846282 -7.038448739e-19 -0.002328864649)
(-0.0003123842333 -6.443961341e-19 -0.002318949054)
(-0.0003201079005 -4.158918441e-19 -0.002308421544)
(-0.0003268264892 -5.526514954e-19 -0.002297291181)
(-0.0003325099753 -4.910206132e-19 -0.002285570193)
(-0.0003371270094 -4.481005946e-19 -0.002273273819)
(-0.0003406449078 -3.245398997e-19 -0.002260420712)
(-0.0003430295075 -2.902809409e-19 -0.002247033138)
(-0.0003442450295 -2.136596498e-19 -0.002233137269)
(-0.0003442540869 -1.139731261e-19 -0.002218763929)
(-0.0003430178833 -5.609702587e-20 -0.002203949037)
(-0.0003404964379 9.48652235e-20 -0.002188734671)
(-0.0003366491334 2.017836903e-19 -0.002173169847)
(-0.0003314355878 2.854362003e-19 -0.002157311532)
(-0.0003248165166 3.637125698e-19 -0.002141225704)
(-0.000316755492 3.946564005e-19 -0.002124988198)
(-0.0003072207449 4.141155769e-19 -0.0021086857)
(-0.0002961874903 4.480466318e-19 -0.002092415982)
(-0.0002836408977 4.775709915e-19 -0.002076287855)
(-0.0002695792777 4.988657792e-19 -0.002060420826)
(-0.0002540175822 5.227517953e-19 -0.002044943396)
(-0.0002369911027 5.418344969e-19 -0.002029991254)
(-0.0002185588535 5.603854703e-19 -0.00201570424)
(-0.0001988062068 5.767298379e-19 -0.00200222277)
(-0.0001778468594 5.843792586e-19 -0.001989683892)
(-0.0001558227022 5.652884841e-19 -0.001978217179)
(-0.0001329021359 5.425485139e-19 -0.001967940994)
(-0.0001092758579 6.348801362e-19 -0.001958959963)
(-8.515270739e-05 5.690923189e-19 -0.001951364146)
(-6.075731869e-05 5.774416629e-19 -0.001945228548)
(-3.631655736e-05 5.052042129e-19 -0.001940609861)
(-1.203104461e-05 5.725332623e-19 -0.001937551901)
(-1.521583148e-05 -2.910641376e-19 -0.002447268435)
(-3.931087528e-05 -9.325809145e-19 -0.002446668236)
(-6.189902473e-05 -1.37797363e-18 -0.002445859983)
(-8.527703491e-05 -7.97204122e-19 -0.002444512307)
(-0.0001081129105 -3.579130604e-19 -0.002442690688)
(-0.0001303129526 -5.526960138e-19 -0.002440391279)
(-0.00015186804 -5.253369651e-19 -0.002437591216)
(-0.0001727356055 -5.088807928e-19 -0.002434268114)
(-0.0001928799902 -7.120036534e-19 -0.002430398158)
(-0.0002122705048 -7.885295432e-19 -0.002425956989)
(-0.0002308786243 -7.732607891e-19 -0.002420921235)
(-0.0002486769975 -7.19074018e-19 -0.002415268714)
(-0.0002656389191 -8.774028249e-19 -0.002408979473)
(-0.0002817386763 -7.258034266e-19 -0.002402036217)
(-0.0002969506491 -7.858560444e-19 -0.002394424122)
(-0.0003112496308 -8.293037185e-19 -0.002386131537)
(-0.0003246102765 -8.36584656e-19 -0.002377149445)
(-0.0003370071457 -8.011702159e-19 -0.002367471919)
(-0.0003484142168 -7.507373205e-19 -0.002357095514)
(-0.0003588048164 -6.866575135e-19 -0.002346019691)
(-0.0003681511256 -6.557624823e-19 -0.002334246194)
(-0.0003764239953 -6.473792009e-19 -0.002321779416)
(-0.0003835923934 -6.246123354e-19 -0.002308625959)
(-0.0003896231301 -4.68956681e-19 -0.002294795072)
(-0.0003944803628 -3.560635278e-19 -0.002280298448)
(-0.0003981252058 -2.97905632e-19 -0.002265150787)
(-0.0004005152502 -2.316120418e-19 -0.002249370152)
(-0.0004016043339 -1.215781354e-19 -0.002232978373)
(-0.0004013420331 -3.893135689e-20 -0.002216002175)
(-0.0003996735436 8.538003055e-20 -0.002198474136)
(-0.0003965398626 2.171599837e-19 -0.00218043399)
(-0.000391877764 2.46369317e-19 -0.002161930189)
(-0.0003856205111 3.626857204e-19 -0.002143021479)
(-0.00037769899 4.076538122e-19 -0.002123779017)
(-0.0003680433356 4.511639208e-19 -0.002104288418)
(-0.0003565854193 4.732795026e-19 -0.002084651138)
(-0.0003432620959 5.069091402e-19 -0.002064986361)
(-0.0003280198488 5.380135975e-19 -0.002045432154)
(-0.0003108200824 5.43546899e-19 -0.002026145402)
(-0.0002916456766 5.474728131e-19 -0.00200730127)
(-0.0002705085773 5.632967838e-19 -0.00198909078)
(-0.000247457312 5.739958408e-19 -0.001971716727)
(-0.0002225846207 5.848320153e-19 -0.001955388066)
(-0.0001960329338 5.643018007e-19 -0.001940312271)
(-0.0001679969009 5.252805658e-19 -0.001926686795)
(-0.0001387213641 5.721298714e-19 -0.001914691796)
(-0.0001084969799 5.838149216e-19 -0.001904484726)
(-7.765439651e-05 5.872344239e-19 -0.001896195907)
(-4.653119739e-05 5.824743839e-19 -0.001889921814)
(-1.543007743e-05 5.834159248e-19 -0.001885737402)
(-1.726035226e-05 -2.048694514e-19 -0.002489549026)
(-4.45785202e-05 -7.477988997e-19 -0.002488875414)
(-7.018979618e-05 -1.332180312e-18 -0.002487958178)
(-9.670505374e-05 -9.731108173e-19 -0.00248643369)
(-0.0001225997718 -1.178397264e-18 -0.002484378922)
(-0.0001477768905 -7.279895299e-19 -0.002481790743)
(-0.000172227476 -6.465728763e-19 -0.002478645896)
(-0.0001959053248 -5.849863932e-19 -0.002474921689)
(-0.0002187731317 -8.102041707e-19 -0.002470593683)
(-0.0002408001679 -8.536232589e-19 -0.002465636966)
(-0.0002619585672 -9.976180997e-19 -0.002460026972)
(-0.0002822219118 -9.082766205e-19 -0.002453740205)
(-0.0003015655167 -7.701193895e-19 -0.002446755492)
(-0.0003199656915 -8.595722693e-19 -0.002439053636)
(-0.0003373994496 -9.260189422e-19 -0.002430618213)
(-0.0003538444454 -9.56021724e-19 -0.002421435259)
(-0.0003692783631 -9.628313439e-19 -0.002411493402)
(-0.000383678929 -9.635761625e-19 -0.002400783765)
(-0.0003970233012 -9.709028293e-19 -0.002389299625)
(-0.0004092878249 -1.093884417e-18 -0.002377036354)
(-0.000420447553 -8.073117266e-19 -0.002363991226)
(-0.0004304757332 -7.661591525e-19 -0.002350163035)
(-0.0004393432669 -6.993482733e-19 -0.002335552206)
(-0.0004470181264 -6.834105394e-19 -0.002320160371)
(-0.0004534646212 -2.556342582e-19 -0.002303990751)
(-0.0004586426011 -2.919349342e-19 -0.002287048093)
(-0.0004625068864 -7.101155536e-20 -0.002269338987)
(-0.0004650061443 -1.036830303e-19 -0.002250872477)
(-0.0004660820582 -1.360466685e-20 -0.002231660817)
(-0.0004656686331 2.444799188e-19 -0.002211720583)
(-0.0004636911563 2.176842648e-19 -0.00219107424)
(-0.0004600655391 3.280160716e-19 -0.002169751924)
(-0.0004546977902 3.372614012e-19 -0.002147793495)
(-0.00044748374 3.799320679e-19 -0.002125251696)
(-0.0004383097084 4.321527024e-19 -0.002102195424)
(-0.0004270536348 4.555495764e-19 -0.002078713012)
(-0.0004135873279 4.915532011e-19 -0.00205491631)
(-0.0003977806709 5.358416764e-19 -0.002030944994)
(-0.0003795077397 5.542867481e-19 -0.002006970421)
(-0.0003586552207 7.08083767e-19 -0.001983198616)
(-0.0003351340775 5.756551438e-19 -0.001959871921)
(-0.0003088943639 5.73249783e-19 -0.001937268603)
(-0.0002799423947 5.760320834e-19 -0.001915698307)
(-0.0002483591315 5.735165803e-19 -0.001895492337)
(-0.0002143167705 5.709831666e-19 -0.0018769893)
(-0.0001780897331 6.063585908e-19 -0.001860516168)
(-0.0001400610906 6.476157271e-19 -0.001846369144)
(-0.0001007170088 6.263430315e-19 -0.001834794543)
(-6.057631302e-05 6.169351783e-19 -0.001825970322)
(-2.012240375e-05 6.132229353e-19 -0.001820033108)
(-1.9467821e-05 -1.074741122e-19 -0.00253660457)
(-5.026273815e-05 -4.971028226e-19 -0.002535850617)
(-7.913471432e-05 -9.224475282e-19 -0.002534810421)
(-0.0001090338069 -7.576113613e-19 -0.002533088081)
(-0.0001382240305 -9.412579612e-19 -0.002530774204)
(-0.0001666061918 -7.425111567e-19 -0.002527866447)
(-0.0001941710262 -7.760244195e-19 -0.002524342004)
(-0.0002208680855 -8.457713221e-19 -0.0025201787)
(-0.0002466587356 -1.019747388e-18 -0.002515352737)
(-0.0002715126358 -1.147994999e-18 -0.002509839186)
(-0.0002954026198 -1.148849712e-18 -0.002503612989)
(-0.0003183041618 -1.116504431e-18 -0.002496650534)
(-0.000340195306 -1.067996907e-18 -0.002488929877)
(-0.0003610553616 -1.078951411e-18 -0.002480430866)
(-0.0003808653221 -1.116378716e-18 -0.002471136058)
(-0.0003996068563 -1.123781363e-18 -0.002461029843)
(-0.0004172624259 -1.118879598e-18 -0.002450099171)
(-0.0004338145125 -1.12433718e-18 -0.002438332659)
(-0.0004492455323 -1.129766473e-18 -0.002425720856)
(-0.0004635370702 -1.081135204e-18 -0.00241225537)
(-0.0004766694821 -9.743460218e-19 -0.002397929065)
(-0.0004886212879 -8.805629672e-19 -0.002382735447)
(-0.0004993685284 -7.642324793e-19 -0.002366668221)
(-0.0005088838941 -6.563993229e-19 -0.002349721262)
(-0.0005171359068 -4.805324719e-19 -0.002331888195)
(-0.0005240880053 -3.588124506e-19 -0.002313162402)
(-0.0005296972272 -1.956767769e-19 -0.002293537032)
(-0.0005339130083 -1.07235737e-19 -0.002273005219)
(-0.0005366757959 1.311037173e-19 -0.002251560468)
(-0.000537915377 1.036114089e-19 -0.002229197643)
(-0.0005375489652 1.688417928e-19 -0.002205914203)
(-0.000535479384 2.452602834e-19 -0.002181711628)
(-0.0005315928615 2.762444517e-19 -0.002156597682)
(-0.0005257567655 3.157724317e-19 -0.002130589631)
(-0.0005178177218 3.600019864e-19 -0.002103718238)
(-0.0005075999785 3.999787387e-19 -0.00207603266)
(-0.000494904429 4.389191602e-19 -0.002047606685)
(-0.0004795090721 4.75083022e-19 -0.002018546576)
(-0.0004611719564 5.031818523e-19 -0.001989000302)
(-0.0004396374636 5.327938346e-19 -0.001959168147)
(-0.0004146477021 4.200519937e-19 -0.001929314023)
(-0.0003859607391 5.630745108e-19 -0.001899776137)
(-0.0003533776574 5.706870193e-19 -0.001870973611)
(-0.0003167789369 5.791613751e-19 -0.001843404818)
(-0.0002761688519 7.241215504e-19 -0.001817632894)
(-0.0002317252649 5.889613767e-19 -0.001794256183)
(-0.0001838545252 5.999605479e-19 -0.001773864775)
(-0.0001332200756 6.854363581e-19 -0.001756976819)
(-8.062116244e-05 6.413425111e-19 -0.001743971031)
(-2.686867186e-05 6.274561103e-19 -0.0017351279)
(-2.183191707e-05 -2.358289344e-20 -0.002588680115)
(-5.634687463e-05 -1.123230407e-19 -0.002587837451)
(-8.870835188e-05 3.055515991e-20 -0.002586657863)
(-0.0001222286401 -2.866899212e-19 -0.002584712462)
(-0.0001549401718 -4.126480885e-19 -0.00258210838)
(-0.0001867435558 -3.871880664e-19 -0.002578844262)
(-0.0002176282572 -8.989917531e-19 -0.002574898737)
(-0.0002475392093 -1.044720897e-18 -0.002570251634)
(-0.0002764366744 -1.223316987e-18 -0.002564880712)
(-0.0003042903717 -1.850133959e-18 -0.002558761898)
(-0.0003310742152 -1.365984758e-18 -0.002551870949)
(-0.0003567663318 -1.357775519e-18 -0.002544185001)
(-0.0003813476801 -9.955809582e-19 -0.002535682167)
(-0.0004048018336 -1.319032224e-18 -0.00252634273)
(-0.000427114356 -1.329686584e-18 -0.00251614868)
(-0.0004482724245 -1.319722811e-18 -0.002505084154)
(-0.0004682642859 -1.300016556e-18 -0.002493134797)
(-0.0004870789384 -1.302890076e-18 -0.002480288084)
(-0.0005047055745 -1.250989001e-18 -0.002466532213)
(-0.0005211330326 -1.183944812e-18 -0.002451856241)
(-0.0005363492352 -1.095305841e-18 -0.002436249198)
(-0.0005503405339 -1.012066045e-18 -0.002419699871)
(-0.0005630909529 -9.096070919e-19 -0.002402196187)
(-0.0005745814909 -7.5780374e-19 -0.002383724478)
(-0.0005847890324 -6.293421716e-19 -0.002364269171)
(-0.000593685178 -5.075052757e-19 -0.002343812328)
(-0.0006012350232 -3.882743298e-19 -0.002322333224)
(-0.0006073956985 -2.148616032e-19 -0.002299808031)
(-0.0006121144864 -5.994665913e-20 -0.002276209649)
(-0.0006153265459 4.512869775e-20 -0.002251508015)
(-0.0006169525111 4.678096908e-20 -0.00222567053)
(-0.00061689542 1.562821789e-19 -0.002198662484)
(-0.0006150369688 1.899127183e-19 -0.002170448539)
(-0.0006112332879 2.344246754e-19 -0.00214099494)
(-0.0006053098182 2.866164545e-19 -0.002110272478)
(-0.0005970557374 3.400368361e-19 -0.002078261075)
(-0.0005862176443 3.854508689e-19 -0.002044956411)
(-0.0005724929935 4.209430544e-19 -0.002010379362)
(-0.0005555242407 4.417340355e-19 -0.001974589306)
(-0.0005348945448 6.004704765e-19 -0.001937702179)
(-0.0005101276236 2.662837784e-19 -0.0018999142)
(-0.0004806953593 5.297038706e-19 -0.001861531164)
(-0.0004460390586 6.004525259e-19 -0.00182300139)
(-0.0004056116646 5.835401883e-19 -0.001784948922)
(-0.0003589490068 5.975833052e-19 -0.001748200082)
(-0.0003057799265 6.107909125e-19 -0.001713790049)
(-0.0002461892746 6.297584713e-19 -0.001682915923)
(-0.0001807845339 6.763453878e-19 -0.001656775278)
(-0.0001106213624 5.811553607e-19 -0.001636316419)
(-3.710127826e-05 5.951707778e-19 -0.001622234578)
(-2.434406217e-05 1.288378209e-20 -0.00264597926)
(-6.280810601e-05 7.171682892e-20 -0.002645038075)
(-9.887597442e-05 1.892549676e-19 -0.002643703573)
(-0.0001362423 -4.306399325e-19 -0.002641506993)
(-0.0001726862973 4.526364518e-20 -0.002638578621)
(-0.0002081114498 -4.89502293e-19 -0.002634917918)
(-0.0002425049539 -8.826140725e-19 -0.002630506205)
(-0.0002758066491 -1.215174822e-18 -0.002625326827)
(-0.0003079752203 -1.073158944e-18 -0.002619359867)
(-0.0003389799802 -1.68176138e-18 -0.002612583207)
(-0.0003687964021 -1.570883961e-18 -0.002604975033)
(-0.0003974051112 -1.558509104e-18 -0.002596513897)
(-0.0004247905731 -1.978214111e-18 -0.002587179473)
(-0.0004509410404 -1.55009317e-18 -0.002576953264)
(-0.0004758473815 -1.564781398e-18 -0.002565818097)
(-0.0004995030161 -1.534838045e-18 -0.002553758683)
(-0.0005219030542 -1.493453082e-18 -0.002540760743)
(-0.0005430439102 -1.521123468e-18 -0.002526811191)
(-0.0005629228037 -1.550078232e-18 -0.002511897527)
(-0.0005815372061 -1.350823776e-18 -0.002496006865)
(-0.0005988841208 -1.246856742e-18 -0.002479125887)
(-0.0006149594397 -1.143007084e-18 -0.002461239835)
(-0.0006297574905 -1.036474837e-18 -0.00244233186)
(-0.0006432698966 -8.614877247e-19 -0.002422382166)
(-0.0006554847299 -6.936931392e-19 -0.002401367322)
(-0.0006663855143 -6.160626129e-19 -0.00237925939)
(-0.0006759499888 -5.123770476e-19 -0.002356025044)
(-0.000684148532 -3.630738066e-19 -0.002331624642)
(-0.0006909423345 -2.269870484e-19 -0.002306011432)
(-0.0006962811128 -1.112415285e-19 -0.00227913076)
(-0.0007001004847 -1.295366541e-20 -0.002250919244)
(-0.0007023184064 3.163552404e-20 -0.002221303861)
(-0.0007028307641 7.825846896e-20 -0.002190201377)
(-0.0007015059614 1.34273482e-19 -0.002157518264)
(-0.0006981777437 2.045525271e-19 -0.002123150752)
(-0.0006926361742 3.008017004e-19 -0.002086985864)
(-0.0006846163835 2.743320143e-19 -0.002048904296)
(-0.0006737840216 3.953152014e-19 -0.002008785894)
(-0.0006597176461 4.109052583e-19 -0.001966520092)
(-0.0006418874739 4.525883373e-19 -0.001922023418)
(-0.0006196313456 4.941894161e-19 -0.001875267936)
(-0.0005921302485 4.828433006e-19 -0.001826327294)
(-0.00055838989 4.875949695e-19 -0.001775447494)
(-0.000517237069 6.732219266e-19 -0.001723148741)
(-0.0004673461569 5.335265717e-19 -0.001670356242)
(-0.0004073345377 5.869382164e-19 -0.001618533396)
(-0.0003360107913 6.233943561e-19 -0.001569738631)
(-0.0002527804367 6.286334574e-19 -0.001526465399)
(-0.0001579443133 6.926326383e-19 -0.001491224419)
(-5.363906803e-05 5.38532189e-19 -0.001466284524)
(-2.699308851e-05 4.206423937e-20 -0.002708675108)
(-6.961717212e-05 2.868674781e-19 -0.002707627022)
(-0.0001095927396 -3.575377833e-20 -0.002706127729)
(-0.0001510127871 -2.932710189e-19 -0.002703646961)
(-0.000191379414 3.661568231e-19 -0.002700354347)
(-0.0002306045418 -2.485223026e-19 -0.002696249929)
(-0.0002686716874 -8.579481615e-19 -0.002691318975)
(-0.0003055142955 -1.30131612e-18 -0.002685549244)
(-0.0003410883921 -1.700815259e-18 -0.002678924192)
(-0.0003753627879 -1.788994945e-18 -0.002671425398)
(-0.0004083143444 -1.737384666e-18 -0.002663034413)
(-0.0004399258625 -1.6818092e-18 -0.002653732578)
(-0.0004701858502 -1.805726534e-18 -0.002643502791)
(-0.000499087173 -1.769024638e-18 -0.002632328724)
(-0.0005266266942 -1.818548957e-18 -0.002620195942)
(-0.0005528043422 -1.725032121e-18 -0.002607090757)
(-0.000577622701 -1.646119285e-18 -0.002593000781)
(-0.0006010862276 -1.623572498e-18 -0.002577913856)
(-0.0006232007754 -1.58724961e-18 -0.002561818035)
(-0.0006439729353 -1.62715267e-18 -0.002544700656)
(-0.0006634094804 -1.436222343e-18 -0.00252654755)
(-0.0006815167228 -1.298312844e-18 -0.002507342388)
(-0.00069829968 -1.155436811e-18 -0.002487065697)
(-0.0007137613867 -9.979280156e-19 -0.002465693993)
(-0.0007279021977 -8.403759317e-19 -0.00244319865)
(-0.0007407187982 -7.41637825e-19 -0.002419544841)
(-0.0007522031051 -6.289140385e-19 -0.00239469017)
(-0.0007623409808 -5.032074712e-19 -0.002368583351)
(-0.0007711107358 -3.746713198e-19 -0.002341162736)
(-0.0007784812906 -2.42335191e-19 -0.002312354705)
(-0.0007844099402 4.574821244e-20 -0.002282071551)
(-0.0007888391773 -1.031571587e-19 -0.002250209041)
(-0.0007916929508 -5.51781389e-20 -0.002216643747)
(-0.0007928716701 -4.961677988e-21 -0.002181230114)
(-0.000792245334 7.412097384e-20 -0.002143796592)
(-0.0007896445897 1.541306371e-19 -0.002104141074)
(-0.0007848478469 2.488059552e-19 -0.00206202651)
(-0.0007775642131 2.88052034e-19 -0.002017176777)
(-0.0007674091311 3.26429231e-19 -0.001969273676)
(-0.0007538705714 3.695988985e-19 -0.001917958156)
(-0.0007362616805 4.041083713e-19 -0.001862840391)
(-0.0007136549563 4.138856622e-19 -0.001803526693)
(-0.0006847913051 4.320896524e-19 -0.001739675234)
(-0.0006479569082 4.5217882e-19 -0.001671096699)
(-0.0006008236591 5.077903609e-19 -0.001597920659)
(-0.0005403040652 5.663965154e-19 -0.001520878447)
(-0.0004626036611 6.317646048e-19 -0.001441794524)
(-0.0003635113076 7.841263081e-19 -0.00136432603)
(-0.0002382846878 6.422953309e-19 -0.001294913051)
(-8.430275058e-05 5.604771325e-19 -0.001243525615)
(-2.975720716e-05 -1.50937981e-19 -0.002776958382)
(-7.672738273e-05 -1.817519097e-19 -0.002775798534)
(-0.0001207901306 -1.086134026e-19 -0.002774100895)
(-0.0001664485109 -4.047241458e-20 -0.002771272827)
(-0.0002108985601 4.861949068e-20 -0.002767537546)
(-0.0002540724534 -4.707299436e-19 -0.002762897194)
(-0.0002959473841 -9.369110814e-19 -0.00275734151)
(-0.0003364483902 -1.331069141e-18 -0.002750864105)
(-0.0003755283877 -1.732962813e-18 -0.002743453644)
(-0.0004131559037 -1.518448825e-18 -0.002735097188)
(-0.0004493085657 -1.933398383e-18 -0.002725780549)
(-0.0004839718845 -2.353553915e-18 -0.002715489819)
(-0.0005171383436 -1.911863015e-18 -0.002704211687)
(-0.0005488060378 -1.968887482e-18 -0.002691933669)
(-0.0005789778067 -1.980800835e-18 -0.002678644138)
(-0.0006076604939 -1.941254233e-18 -0.002664332575)
(-0.0006348642409 -1.820060121e-18 -0.002648988395)
(-0.0006606014978 -1.751213781e-18 -0.002632601239)
(-0.0006848865233 -1.672627534e-18 -0.002615160055)
(-0.0007077347128 -1.692608244e-18 -0.002596652264)
(-0.0007291618013 -1.608903558e-18 -0.002577063102)
(-0.0007491832281 -1.499292436e-18 -0.002556374651)
(-0.0007678133859 -1.315079351e-18 -0.002534564698)
(-0.0007850650358 -1.158548089e-18 -0.002511605824)
(-0.0008009484771 -1.027147162e-18 -0.00248746399)
(-0.0008154707066 -9.022676594e-19 -0.002462097138)
(-0.0008286344948 -7.800868958e-19 -0.002435453589)
(-0.0008404373684 -6.648929541e-19 -0.00240747021)
(-0.0008508703343 -5.427177191e-19 -0.002378070391)
(-0.0008599166377 -4.147181546e-19 -0.002347161604)
(-0.0008675496108 -2.705733065e-19 -0.002314632279)
(-0.0008737308018 -1.370265603e-19 -0.002280348213)
(-0.0008784070281 -2.129351185e-19 -0.002244147357)
(-0.0008815064169 -2.042234236e-19 -0.002205834424)
(-0.0008829336534 -2.177841819e-19 -0.002165172827)
(-0.0008825630871 -3.024369741e-20 -0.002121874494)
(-0.0008802288859 9.064013553e-20 -0.002075586687)
(-0.0008757114109 1.932247382e-19 -0.002025874245)
(-0.0008687165111 3.181349646e-19 -0.001972197548)
(-0.0008588449152 3.089637187e-19 -0.001913883463)
(-0.0008455446368 3.138105394e-19 -0.001850089023)
(-0.000828036997 3.223087901e-19 -0.001779758288)
(-0.0008051992959 3.405578675e-19 -0.001701575444)
(-0.0007753785483 3.886206942e-19 -0.001613930986)
(-0.0007360990475 4.6058984e-19 -0.001514963089)
(-0.0006836456649 5.863266762e-19 -0.001402854142)
(-0.0006125142865 5.145733095e-19 -0.001276736529)
(-0.0005139487553 4.717152325e-19 -0.00113865881)
(-0.0003703717214 4.016094099e-19 -0.0009977100622)
(-0.0001529857858 3.87142423e-19 -0.0008785749847)
(-3.236979646e-05 4.591209864e-19 -0.002848045577)
(-8.340398253e-05 -9.34818191e-19 -0.002846861637)
(-0.0001312810917 -1.234148053e-19 -0.002844945994)
(-0.0001809034118 -7.305663839e-19 -0.002841782533)
(-0.0002291732342 -1.995310654e-19 -0.002837623867)
(-0.0002760417591 -6.549321815e-19 -0.002832475803)
(-0.0003214783752 -1.000403581e-18 -0.002826334107)
(-0.0003653997242 -1.864893913e-18 -0.002819200057)
(-0.0004077559464 -1.755499833e-18 -0.002811070344)
(-0.0004485147737 -2.012922896e-18 -0.002801939143)
(-0.0004876540839 -2.027257617e-18 -0.002791798872)
(-0.0005251616672 -2.185982536e-18 -0.002780642482)
(-0.0005610329822 -2.470694989e-18 -0.002768462285)
(-0.0005952704076 -2.256345315e-18 -0.002755251768)
(-0.000627881685 -2.331292506e-18 -0.002741004041)
(-0.0006588791776 -2.321492927e-18 -0.002725713067)
(-0.0006882788981 -2.175389931e-18 -0.002709372572)
(-0.0007160996301 -2.029009489e-18 -0.002691975364)
(-0.0007423619433 -1.896238165e-18 -0.002673513287)
(-0.000767087546 -1.871890765e-18 -0.002653976271)
(-0.0007902985315 -1.653250405e-18 -0.002633351265)
(-0.0008120164943 -1.59303835e-18 -0.002611621503)
(-0.0008322618493 -1.50647879e-18 -0.002588765469)
(-0.0008510530738 -1.33485579e-18 -0.002564755666)
(-0.0008684059029 -9.732540397e-19 -0.002539557322)
(-0.0008843324748 -1.163759151e-18 -0.002513126979)
(-0.0008988405381 -9.50793812e-19 -0.002485410793)
(-0.0009119324167 -8.637891711e-19 -0.002456342515)
(-0.0009236038979 -7.552972461e-19 -0.002425841255)
(-0.0009338429304 -6.450574932e-19 -0.002393809079)
(-0.0009426279195 -5.395422383e-19 -0.002360127464)
(-0.0009499263156 -4.612750778e-19 -0.002324653193)
(-0.0009556918152 -4.51615707e-19 -0.002287213089)
(-0.0009598615688 -3.378865334e-19 -0.002247597412)
(-0.0009623524172 -2.239745233e-19 -0.002205550857)
(-0.0009630556626 -1.718767819e-19 -0.002160760893)
(-0.0009618308713 9.32797912e-20 -0.002112841884)
(-0.0009584964106 9.361515365e-20 -0.002061312768)
(-0.0009528162066 1.406604399e-19 -0.002005566723)
(-0.0009444803197 1.52516661e-19 -0.001944827699)
(-0.0009330745984 -5.228587657e-20 -0.001878087834)
(-0.0009180314019 2.54261193e-19 -0.001804015587)
(-0.0008985477383 4.784907086e-19 -0.001720819424)
(-0.000873443286 2.318601405e-19 -0.00162604357)
(-0.0008409128922 2.59187433e-19 -0.001516254617)
(-0.0007980863104 3.182098261e-19 -0.001386527642)
(-0.0007400930363 3.165657737e-19 -0.001229541197)
(-0.0006571475922 1.954822432e-19 -0.001033745122)
(-0.0005245122175 7.357915116e-19 -0.0007772703064)
(-0.0002685488138 -3.121556244e-20 -0.0004010227453)
(-3.474522329e-05 -6.30083254e-19 -0.002922341205)
(-8.947828282e-05 -6.047518081e-19 -0.002921147742)
(-0.0001408042198 -6.901920381e-20 -0.002919011394)
(-0.0001940021932 -7.002328499e-19 -0.002915574326)
(-0.0002457390371 2.763453556e-19 -0.002911052349)
(-0.0002959587961 1.002702503e-19 -0.002905471777)
(-0.0003446267229 -1.204270251e-18 -0.002898837508)
(-0.0003916528448 -1.537040067e-18 -0.002891159238)
(-0.00043698454 -1.839495001e-18 -0.002882443098)
(-0.0004805878976 -2.044393571e-18 -0.002872691495)
(-0.0005224410082 -2.2850874e-18 -0.002861905638)
(-0.0005625328888 -2.242305623e-18 -0.002850086109)
(-0.000600861326 -2.322603993e-18 -0.002837232982)
(-0.0006374315348 -2.25388101e-18 -0.002823346288)
(-0.0006722549699 -2.379137922e-18 -0.002808426267)
(-0.0007053480667 -2.57040158e-18 -0.002792472315)
(-0.0007367309798 -2.549699644e-18 -0.002775483754)
(-0.0007664269055 -2.318632072e-18 -0.002757458783)
(-0.000794460805 -2.220293975e-18 -0.002738393662)