/*--------------------------------*- C++ -*----------------------------------*\
  =========                 |
  \\      /  F ield         | OpenFOAM: The Open Source CFD Toolbox
   \\    /   O peration     | Website:  https://openfoam.org
    \\  /    A nd           | Version:  7
     \\/     M anipulation  |
\*---------------------------------------------------------------------------*/
FoamFile
{
    version     2.0;
    format      ascii;
    class       volScalarField;
    location    "0.0021";
    object      generalizedNewtonian:nu;
}
// * * * * * * * * * * * * * * * * * * * * * * * * * * * * * * * * * * * * * //

dimensions      [0 2 -1 0 0 0 0];

internalField   nonuniform List<scalar> 
1167
(
34.86719258
34.69197017
31.27470043
31.11961473
31.18041792
30.90220355
30.63817027
30.32310089
29.9608804
29.56159626
29.13122333
28.67542797
28.19999501
27.70940774
27.20790314
26.69962903
26.1873462
25.67413901
25.16215289
24.65337053
24.14940365
23.65144337
23.16066724
22.67774451
22.20350678
21.73839248
21.28295715
20.83755053
20.40256828
19.9784607
19.56555646
19.16448448
18.77553294
18.39956032
18.03686605
17.68830789
17.35421576
17.0352275
16.7315818
16.44346285
16.1707316
15.91298964
15.66960767
15.43956212
15.22170386
15.01453539
14.81654403
14.62610406
14.44204517
14.26395135
14.089742
13.91997814
28.14033846
28.0030651
28.06192419
27.81502868
27.58274819
27.30464608
26.98429646
26.63014019
26.24739234
25.84109727
25.41584712
24.97553196
24.52410374
24.06462704
23.59983082
23.13234596
22.66381957
22.1963661
21.73091359
21.26900411
20.81116079
20.35851256
19.91131421
19.47045622
19.03607406
18.60883407
18.18900169
17.77713635
17.37373888
16.97932302
16.5947111
16.22044375
15.85756102
15.50673605
15.16895942
14.84507166
14.53580022
14.24188809
13.9636459
13.70153657
13.45531191
13.22481868
13.00925416
12.80777262
12.61902134
12.44168613
12.27446094
12.11647098
11.96483578
11.8238382
25.4052452
25.28371735
25.34087603
25.12177351
24.91768346
24.67252573
24.3892207
24.07524765
23.73504614
23.37299805
22.99262657
22.59751284
22.19099367
21.77548092
21.35367519
20.92737462
20.49844046
20.06821738
19.63794844
19.20854968
18.78085341
18.35542618
17.93292717
17.51362578
17.09817792
16.68673109
16.27990315
15.87802624
15.48165045
15.091492
14.70813078
14.33256069
13.96560654
13.60833478
13.26196477
12.92749838
12.60622989
12.29922204
12.00750486
11.73211084
11.47363848
11.23271732
11.00944734
10.80369312
10.61475977
10.44165876
10.28335083
10.13828352
10.00292559
9.884450457
23.01738317
22.90974171
22.96540574
22.77096053
22.59196587
22.37584259
22.12546126
21.84731544
21.54529324
21.22266301
20.88257269
20.52825701
20.16211616
19.78652882
19.40359717
19.01486311
18.62200657
18.22596778
17.82799669
17.42866012
17.02878655
16.62878617
16.22912497
15.83020105
15.4322163
15.03573332
14.64089245
14.24817056
13.85811583
13.47121102
13.08826173
12.71006948
12.33756081
11.97197608
11.61447725
11.26636811
10.92919275
10.60440565
10.29351191
9.998153056
9.719789319
9.459822042
9.219574291
8.999836646
8.801101541
8.623249647
8.465727245
8.32654495
8.201327285
8.09950192
20.93093696
20.83550911
20.88987868
20.71736296
20.56043855
20.3701031
20.14906296
19.90302961
19.63505604
19.34778865
19.04408179
18.72645142
18.39688417
18.05764147
17.71008943
17.35589853
16.99606967
16.6317915
16.26365073
15.89254732
15.5187615
15.14288897
14.76511974
14.38572854
14.00507017
13.6232389
13.24056882
12.85741279
12.47408663
12.09112895
11.70923249
11.32907842
10.95158632
10.5779203
10.20929054
9.847073578
9.492839141
9.148372421
8.815507455
8.496234085
8.192713043
7.907286197
7.642203704
7.399666595
7.181602632
6.989324079
6.823459683
6.682234282
6.56070823
6.470099614
19.10591259
19.02130569
19.07445672
18.92126562
18.78392838
18.6165511
18.42171509
18.20441393
17.9668385
17.71132817
17.44042192
17.15585873
16.85961781
16.55327324
16.23818799
15.91559551
15.58643135
15.25152893
14.91154018
14.56690339
14.21818277
13.86548844
13.50913943
13.14931239
12.78607932
12.41964449
12.05019242
11.67786412
11.3029434
10.92589176
10.54717516
10.16738964
9.787329191
9.407967574
9.030495156
8.656215799
8.286677689
7.923649912
7.569146114
7.225452171
6.895140078
6.581063893
6.286267528
6.013909039
5.767195041
5.549451074
5.363769896
5.210148454
5.084234474
4.998632418
17.508187
17.43305382
17.48465339
17.34838564
17.22819835
17.08095111
16.90926254
16.71711087
16.50639579
16.27921771
16.03736747
15.78244513
15.51616768
15.23958746
14.95412819
14.660473
14.35968349
14.05220412
13.73865938
13.41942763
13.0947235
12.76489184
12.4299678
12.09002949
11.74520209
11.39554426
11.0410761
10.68189934
10.31818657
9.950237212
9.578340741
9.202949565
8.824674212
8.444269411
8.062678117
7.681050492
7.300753704
6.923434398
6.551032452
6.185809894
5.830389056
5.487760146
5.161317189
4.854989367
4.573386283
4.321869793
4.10576134
3.927458977
3.785629104
3.696124266
16.107155
16.04009934
16.0893566
15.96790533
15.86277156
15.73327557
15.58188725
15.41202245
15.22532942
15.02354028
14.80795801
14.58014922
14.34119887
14.09226066
13.83416039
13.56776116
13.29353987
13.01221488
12.72398924
12.42920019
12.12811858
11.82078138
11.50728019
11.18771488
10.86207094
10.53032738
10.19249724
9.84862856
9.498809412
9.143164781
8.781909923
8.415344017
8.043860607
7.66801168
7.288457805
6.90606383
6.521917049
6.13736983
5.754164533
5.374377395
5.000572632
4.635904868
4.284160587
3.949621344
3.636852675
3.350378469
3.094416251
2.872867564
2.694426882
2.590548501
14.87270201
14.8123478
14.86012519
14.75321624
14.6633586
14.5516762
14.42063961
14.27324012
14.11086328
13.93459574
13.7456534
13.54517438
13.33395658
13.11293732
12.88268223
12.64380742
12.3967691
12.14185729
11.87945966
11.60968743
11.33265374
11.04845064
10.75719922
10.45883639
10.15336253
9.840772164
9.521074381
9.194287832
8.86045273
8.519654452
8.172011388
7.817690288
7.456926315
7.090070954
6.717502985
6.339713761
5.957439211
5.57155171
5.183251041
4.794109911
4.406246903
4.022289372
3.645417201
3.279137024
2.927299143
2.594980876
2.289414377
2.01876265
1.795828816
1.661597668
13.79584812
13.73728251
13.78596187
13.69240522
13.61666335
13.52096801
13.40802139
13.28032755
13.13866059
12.9837482
12.81664466
12.63789227
12.44833885
12.24839439
12.03881079
11.81984687
11.59196335
11.3555484
11.11079865
10.85796059
10.59728616
10.32893166
10.05301848
9.769683863
9.479050437
9.181249457
8.876396522
8.564615684
8.246056712
7.920864025
7.589274891
7.251392242
6.907415458
6.557626007
6.202189665
5.841446574
5.475642068
5.105197437
4.730686709
4.352894904
3.972983212
3.592662165
3.214367733
2.841642676
2.479665952
2.135753088
1.817222315
1.524418059
1.251549917
1.011201054
12.86903048
12.81279686
12.86075802
12.77315367
12.7035266
12.61529165
12.51143204
12.39442681
12.26482516
12.12357311
11.97152259
11.80932435
11.6376832
11.45711045
11.26804629
11.0710005
10.86619908
10.65392783
10.43449998
10.2080244
9.974648918
9.734495298
9.487662407
9.234221045
8.974244406
8.707782799
8.434859136
8.155500484
7.869706013
7.57755824
7.278938844
6.973826145
6.662162882
6.343824297
6.018677132
5.686568998
5.347261678
5.000580791
4.646367276
4.284586283
3.915448149
3.539568068
3.158209086
2.773590372
2.389000375
2.008635636
1.636705444
1.27214934
0.9023236438
0.5326673932
12.06053642
12.01297837
12.06267691
11.98532345
11.92649026
11.85143343
11.76264596
11.66201221
11.54990264
11.42708328
11.29396028
11.15116891
10.99902774
10.83811155
10.66861738
10.49094152
10.305418
10.11222783
9.911615203
9.703809812
9.489039371
9.26746273
9.039241239
8.804536913
8.563518368
8.316340852
8.063131079
7.803975722
7.53896425
7.268217344
6.991719489
6.709495732
6.421485568
6.127688924
5.827927302
5.522042077
5.209868717
4.891176045
4.565706337
4.233214666
3.893522442
3.546482838
3.192179709
2.830896249
2.463202999
2.0896863
1.708259901
1.3090397
0.8923848586
0.5261387505
11.33586148
11.29529434
11.34488008
11.27707257
11.22756207
11.16405348
11.08870101
11.00298783
10.90727572
10.80204865
10.68759243
10.56438605
10.43262461
10.29262838
10.14466212
9.988876591
9.825504248
9.654769584
9.476775448
9.291688866
9.099660044
8.900835432
8.695338947
8.483301983
8.264815102
8.039951753
7.808799521
7.571367473
7.32757779
7.077376682
6.820562072
6.556914963
6.286063962
6.007561483
5.720850001
5.425247041
5.11996468
4.804136849
4.47686738
4.137349604
3.785153564
3.420370318
3.044135102
2.658996445
2.269246823
1.880639022
1.499190463
1.132272987
0.7979878321
0.5306984871
10.67717405
10.64096844
10.68985751
10.62953618
10.58711638
10.53249847
10.46733122
10.39301843
10.30988744
10.21811014
10.11803936
10.0098445
9.893816664
9.770015252
9.638701463
9.499993357
9.353982673
9.200804285
9.040594629
8.873497003
8.699591587
8.518978026
8.331761147
8.138070723
7.937923481
7.731353126
7.518327568
7.298863613
7.072737548
6.839786681
6.599652931
6.352020566
6.096314964
5.831890093
5.5580115
5.273820313
4.978310672
4.670427105
4.349105246
4.013395107
3.662671867
3.297053669
2.917960424
2.528842574
2.135948103
1.748657795
1.379547467
1.044420135
0.7603180983
0.5401305567
10.08013845
10.04672262
10.09498276
10.04109904
10.00483598
9.957909221
9.901584105
9.83721445
9.764965673
9.684875265
9.597281635
9.502159423
9.399731207
9.290045304
9.173157164
9.049208425
8.918257888
8.780352039
8.635580049
8.484022254
8.325761524
8.160864512
7.98940442
7.811408884
7.626909637
7.435918171
7.238291414
7.033920042
6.822566441
6.603916564
6.37752811
6.142929324
5.899437895
5.646266327
5.382541514
5.107225504
4.819181261
4.517212768
4.200063566
3.866719337
3.516639023
3.150401365
2.770509023
2.382543409
1.995931132
1.623698379
1.280890482
0.9816812134
0.7356862165
0.5454407296
9.537820885
9.506598847
9.554187214
9.505879147
9.474887948
9.434520268
9.385802524
9.330030287
9.267119135
9.197183769
9.120286843
9.036507978
8.945797709
8.848299625
8.743948894
8.632754454
8.514745808
8.389974052
8.258471991
8.120257675
7.975365772
7.82385912
7.665768755
7.501066748
7.329728416
7.151702966
6.966869746
6.774978942
6.575785215
6.368877008
6.153779464
5.92989631
5.696513763
5.452789188
5.197747219
4.930275425
4.649126477
4.35294769
4.040454691
3.710587348
3.363028475
2.99898013
2.622418598
2.241244657
1.867681015
1.516656437
1.202405482
0.9348670065
0.717736223
0.5488614399
9.043960773
9.014586405
9.061383672
9.01786914
8.991180939
8.956279512
8.91395802
8.865337484
8.810238844
8.748802432
8.680877206
8.606582184
8.525778972
8.438427444
8.344570263
8.244103208
8.136999935
8.02325437
7.902862247
7.775830786
7.64216233
7.501872561
7.354941758
7.201391642
7.041136582
6.874041231
6.700017925
6.518744565
6.329956721
6.133217243
5.928008581
5.713687927
5.489508406
5.254594987
5.007884288
4.74818217
4.474135128
4.184317354
3.877369841
3.552265771
3.209081279
2.849903502
2.480355186
2.110581253
1.75454022
1.427055709
1.139799675
0.8986733712
0.7037058235
0.5507396341
8.59340459
8.56562028
8.611535553
8.572003986
8.548814499
8.518405614
8.481376331
8.438597328
8.389981309
8.33546556
8.274982081
8.208412868
8.135749852
8.056823668
7.971551106
7.879865366
7.781739907
7.677091043
7.565887177
7.448105702
7.323765784
7.19285378
7.055323966
6.911139789
6.760279793
6.602575448
6.437872683
6.265881508
6.086322385
5.898731672
5.70256191
5.497145389
5.281712945
5.055315644
4.816830057
4.56497458
4.298290171
4.015297463
3.714562254
3.395270841
3.057970883
2.705902053
2.346368506
1.991241606
1.65503189
1.35112785
1.088237679
0.8691617076
0.6918492783
0.5514127562
8.181545145
8.155117359
8.199970761
8.163759712
8.143360233
8.116605574
8.083788558
8.045700847
8.00230095
7.953330846
7.898819798
7.838516592
7.772323544
7.700165804
7.621855432
7.537298245
7.446417638
7.349149431
7.245451423
7.135289091
7.018654164
6.895518922
6.765917675
6.62976122
6.486980095
6.337481309
6.181046434
6.017414349
5.846281756
5.667168059
5.479499712
5.282598552
5.075639137
4.857598761
4.627297525
4.383352334
4.124249206
3.84841521
3.554473603
3.241888862
2.911862313
2.568852265
2.221683978
1.88323918
1.567573201
1.286042322
1.044688448
0.8441568964
0.6813150449
0.5511526832
7.804101268
7.778820439
7.822482335
7.789006426
7.770761349
7.746868384
7.717301996
7.68290693
7.64351214
7.598916756
7.54897783
7.493567501
7.43247101
7.365544766
7.292679322
7.213746457
7.128636355
7.037285849
6.939648396
6.835719459
6.725502287
6.608957126
6.486073773
6.356875452
6.22122601
6.07905587
5.930126589
5.774208661
5.610948536
5.439853138
5.260327095
5.071663412
4.872967432
4.6631633
4.44099482
4.204995888
3.953600617
3.685197154
3.398544532
3.093469719
2.771954078
2.439630173
2.106506245
1.785757885
1.490340989
1.229473679
1.007038334
0.8222991286
0.6716182871
0.5501366775
7.457239989
7.432922679
7.475276143
7.44401305
7.427398566
7.405574715
7.378421326
7.346785142
7.310344633
7.269007591
7.222499081
7.17070177
7.113442478
7.050520334
6.981802018
6.90717992
6.826567435
6.739910425
6.647172674
6.548353499
6.443447226
6.33251075
6.215507665
6.09241702
5.963194433
5.82769755
5.685716947
5.537035122
5.381231073
5.217801016
5.046134741
4.865469282
4.674845125
4.473138317
4.259010568
4.030949119
3.787339965
3.526601615
3.247674076
2.950834317
2.63889101
2.318520058
2.000494726
1.697694431
1.4216525
1.179602432
0.9738254792
0.8027055053
0.662456806
0.5484867237
7.137500161
7.113980789
7.154920827
7.125429855
7.109886539
7.089482968
7.064041551
7.034276337
6.999924289
6.960806346
6.916733243
6.867487087
6.8129192
6.752890681
6.68723746
6.615862336
6.538701335
6.455717243
6.366904548
6.272326924
6.171959831
6.065836431
5.954018083
5.836440664
5.713080554
5.583767065
5.448330172
5.306481236
5.157791988
5.00173298
4.83766277
4.664757141
4.482011467
4.288242579
4.08204931
3.861878229
3.626095114
3.373212632
3.102405014
2.814444308
2.512953398
2.205448469
1.903032939
1.617908094
1.36005904
1.135064266
0.9440061911
0.784784485
0.6536352484
0.5462856807
6.841740618
6.818874085
6.858325526
6.830179652
6.815217163
6.795673114
6.771298395
6.742655054
6.709609482
6.671859593
6.629309482
6.581739507
6.528974244
6.470883177
6.407368081
6.338355861
6.263810799
6.183722203
6.098118439
6.007035786
5.910551064
5.80871095
5.701516822
5.588999102
5.471052468
5.347543782
5.218292453
5.082947563
4.941068359
4.792108104
4.635375063
4.46998931
4.294911264
4.108895792
3.910507898
3.698160232
3.470237963
3.225379438
2.963038056
2.68451102
2.394155563
2.100092692
1.813375144
1.545302997
1.30437542
1.094797034
0.916833022
0.7681168537
0.645017858
0.5435892572
3.540014769
3.319968248
3.083277443
2.829709303
2.561074505
2.282326929
2.001979876
1.730756033
1.478908377
1.253613125
1.057998583
0.8917492914
0.7523981915
0.6365051001
0.5404338757
)
;

boundaryField
{
    front_top
    {
        type            wedge;
    }
    front_middle
    {
        type            wedge;
    }
    front_bottom
    {
        type            wedge;
    }
    back_top
    {
        type            wedge;
    }
    back_middle
    {
        type            wedge;
    }
    back_bottom
    {
        type            wedge;
    }
    axis_top
    {
        type            symmetryPlane;
    }
    axis_middle
    {
        type            symmetryPlane;
    }
    axis_bottom
    {
        type            symmetryPlane;
    }
    wall_top
    {
        type            calculated;
        value           nonuniform List<scalar> 10(13.83695201 11.75865307 9.833986863 8.060991402 6.441007745 4.976367636 3.678056114 2.574540728 1.640784521 0.9618987498);
    }
    wall_middle
    {
        type            calculated;
        value           nonuniform List<scalar> 
14
(
0.4237660827
0.413218527
0.4434809845
0.4636877363
0.476418228
0.4856501546
0.492105743
0.4965622506
0.499532231
0.5013395254
0.5022041189
0.5022753994
0.5016561695
0.5004170545
)
;
    }
    wall_bottom
    {
        type            calculated;
        value           nonuniform 0();
    }
    inlet
    {
        type            calculated;
        value           nonuniform 0();
    }
    outlet
    {
        type            calculated;
        value           nonuniform 0();
    }
    procBoundary5to4
    {
        type            processor;
        value           nonuniform List<scalar> 
51
(
6.567125922
6.544798237
6.582666964
6.555459304
6.540680793
6.521551177
6.497626181
6.469510568
6.43705173
6.400008619
6.358199997
6.311525447
6.259809877
6.202940123
6.14084965
6.073502611
6.000896594
5.923059208
5.840074247
5.752006698
5.658915516
5.560886498
5.457947208
5.350085314
5.237206103
5.119200061
4.995805991
4.866669321
4.731321554
4.589189088
4.439528906
4.281423124
4.113791134
3.93534048
3.744615943
3.744615943
3.387528535
3.17537727
2.946966242
2.702423307
2.444024128
2.177201492
1.910583796
1.654408413
1.417873402
1.20698731
1.024035387
0.8683297069
0.7374009215
0.6280203933
0.5368422578
)
;
    }
    procBoundary5to6
    {
        type            processor;
        value           nonuniform List<scalar> 
51
(
38.98408566
38.78605446
34.75495889
34.75495889
34.4415015
34.14168015
33.78508612
33.37580569
32.92565066
32.44182469
31.93078815
31.39893537
30.85213128
30.2949283
29.73194028
29.16681045
28.60250504
28.0420883
27.48723415
26.94020867
26.40199059
25.87409631
25.35708285
24.85193206
24.35891983
23.87874205
23.41144416
22.9576026
22.51715652
22.09072729
21.67820834
21.28028784
20.8968804
20.52861449
20.17547961
19.837871
19.51565593
19.20887222
18.91706704
18.63972864
18.37587254
18.1244211
17.88393283
17.65292991
17.42968236
17.2126256
16.9999436
16.79064103
16.58464391
16.38101303
16.17554116
)
;
    }
}


// ************************************************************************* //
