/*--------------------------------*- C++ -*----------------------------------*\
  =========                 |
  \\      /  F ield         | OpenFOAM: The Open Source CFD Toolbox
   \\    /   O peration     | Website:  https://openfoam.org
    \\  /    A nd           | Version:  7
     \\/     M anipulation  |
\*---------------------------------------------------------------------------*/
FoamFile
{
    version     2.0;
    format      ascii;
    class       volTensorField;
    location    "0.0021";
    object      grad(U);
}
// * * * * * * * * * * * * * * * * * * * * * * * * * * * * * * * * * * * * * //

dimensions      [0 0 -1 0 0 0 0];

internalField   nonuniform List<tensor> 
1167
(
(-0.4166492415 -3.447866972e-15 0.01099663842 5.017454921e-15 -0.6905129781 0 0.06150756682 -7.366116388e-15 1.145054201)
(-0.5526378266 1.959454705e-15 0.01792179374 5.715476329e-15 -0.5990625903 0 0.1588024643 -2.999028662e-14 1.142754675)
(-0.4830568569 7.172314775e-15 0.01254796449 -8.492657643e-15 -0.8009360664 0 0.06986887243 1.676734462e-15 1.325943598)
(-0.6407794815 4.577835391e-15 0.02053345673 -6.965384012e-15 -0.6946666132 0 0.1803153623 5.51105525e-15 1.3233856)
(-0.6331137547 6.683262437e-15 0.03133543702 -5.726912749e-15 -0.6620609579 0 0.2839263383 -1.181740843e-14 1.319851083)
(-0.64464891 1.180956062e-14 0.04624415281 -5.256907527e-15 -0.6571937619 6.728841635e-14 0.3913764716 -1.521565099e-14 1.313972734)
(-0.6394134815 -1.224715007e-14 0.06118420717 -5.044682893e-15 -0.6538554392 5.380995086e-14 0.4963804123 -8.628384522e-15 1.306076272)
(-0.6321453733 -2.423504956e-14 0.07725186774 0 -0.6505679673 0 0.5986569034 -1.739478535e-15 1.296147109)
(-0.623442537 -1.371363446e-14 0.09476797219 2.461483205e-15 -0.6471826494 0 0.6982111899 1.600324573e-15 1.284096984)
(-0.6127793808 -6.760183475e-15 0.1137810501 1.096709106e-15 -0.6434969986 0 0.7948927618 6.989089858e-15 1.269846821)
(-0.6001760231 -4.722096187e-15 0.134352802 3.979774893e-15 -0.6394106847 0 0.8886066548 5.107536058e-15 1.253306152)
(-0.58561086 -1.170902207e-15 0.1565251081 3.661080488e-15 -0.6348737233 0 0.9792848829 5.51158724e-15 1.23436664)
(-0.5689984073 2.080252958e-15 0.180292817 5.108342996e-15 -0.6298524061 2.724449598e-14 1.06685689 2.061565914e-15 1.212917193)
(-0.5502528116 -1.080166581e-15 0.2056127929 1.59839679e-15 -0.6243205221 0 1.151267884 3.483745698e-15 1.188854956)
(-0.5292851541 6.909416738e-16 0.2324234774 1.511804004e-15 -0.6182578931 0 1.232470122 4.439876766e-15 1.16206546)
(-0.5059964177 1.79041084e-15 0.2606334797 2.878148666e-15 -0.6116466265 0 1.310402989 4.384459148e-15 1.132438838)
(-0.4802953655 -3.47031141e-16 0.2901315826 1.377363909e-15 -0.6044706935 0 1.385016365 5.089146788e-15 1.09987157)
(-0.4520845803 1.262474551e-15 0.3207949784 1.324563463e-15 -0.5967161356 0 1.456244403 7.333902797e-15 1.064252066)
(-0.4212692243 2.663075493e-15 0.3524780563 2.558151318e-15 -0.5883693239 0 1.524015954 4.543305896e-15 1.025480702)
(-0.3877546632 2.093151856e-15 0.3850266197 1.239668884e-15 -0.5794183577 0 1.58824544 2.593366543e-15 0.9834490146)
(-0.3514460198 2.278918409e-15 0.418271459 1.205378332e-15 -0.5698514957 -9.643026657e-15 1.648829564 3.319493372e-15 0.9380600215)
(-0.312250023 2.271671025e-15 0.4520312603 2.350875321e-15 -0.5596583089 0 1.705646764 1.638418315e-15 0.8892098637)
(-0.270074377 1.498264429e-15 0.4861107226 1.149230543e-15 -0.5488286026 9.193844347e-15 1.758547217 8.751338902e-16 0.8368033844)
(-0.2248299392 1.279136221e-15 0.5202999014 0 -0.5373533165 0 1.807355369 1.004398135e-15 0.7807436092)
(-0.1764317557 2.052337385e-15 0.554371603 0 -0.5252237958 0 1.851858945 1.308919328e-15 0.7209425316)
(-0.1248020454 4.582237509e-15 0.5880772801 -1.08842756e-15 -0.5124325872 -8.707420477e-15 1.891808677 3.448660705e-15 0.657316401)
(-0.06987368915 4.958193563e-15 0.6211466315 0 -0.4989729794 0 1.926911429 2.357001608e-15 0.5897975277)
(-0.01159634871 4.048363434e-15 0.6532826524 0 -0.4848398297 0 1.956828382 1.384121743e-15 0.5183307333)
(0.05005845147 5.012149376e-15 0.6841582119 0 -0.4700294341 0 1.981170202 2.102352338e-15 0.442887418)
(0.1150890767 5.837719427e-15 0.7134103106 0 -0.4545403855 0 1.99949499 6.738939232e-16 0.3634670132)
(0.1834547766 5.239902526e-15 0.7406379591 0 -0.438373741 0 2.011307594 5.394872365e-16 0.2801139791)
(0.2550631329 4.315298116e-15 0.7654004951 0 -0.4215340251 0 2.016061572 -1.361318345e-16 0.1929217831)
(0.3297597308 5.004428708e-15 0.7872193232 0 -0.4040297467 0 2.013164663 -9.244262853e-16 0.1020529662)
(0.4073126716 2.698020128e-15 0.8055779758 1.009785311e-15 -0.3858744681 8.078282489e-15 2.001984593 -2.123679601e-15 0.007746472056)
(0.4874024095 2.412902297e-15 0.8199350088 0 -0.3670876383 0 1.981865869 -2.533517026e-15 -0.08966378667)
(0.5696080943 2.293566599e-15 0.8297322208 -1.002395304e-15 -0.3476956079 8.019162433e-15 1.952143227 -2.434592235e-15 -0.1897376148)
(0.6533961441 7.549146383e-16 0.8344164834 -1.00004216e-15 -0.3277325652 0 1.912173022 -1.84393051e-15 -0.2919189845)
(0.7381169378 2.111097174e-15 0.8334581074 -9.985050838e-16 -0.3072415041 0 1.861357009 -1.767512845e-15 -0.3955270435)
(0.8230032706 3.499862881e-15 0.8263751065 -1.496600608e-15 -0.2862747966 0 1.799182516 -2.11858389e-15 -0.4997571036)
(0.9071798225 2.440622427e-15 0.8127619387 -4.988417895e-16 -0.2648947741 7.981468632e-15 1.725261854 -2.732845845e-15 -0.6036874127)
(0.9896762974 1.753875752e-15 0.7923094366 -1.497472571e-15 -0.2431736105 0 1.639373095 -2.389436677e-15 -0.7062954642)
(1.069452006 1.933782958e-15 0.7648190973 -4.99796504e-16 -0.2211931963 1.599348813e-14 1.541506478 -1.899685701e-15 -0.8064818765)
(1.145430274 2.635747273e-16 0.7302096381 -1.001486162e-15 -0.1990441148 0 1.431894232 -6.214353123e-16 -0.9030987514)
(1.216533688 -3.446233114e-16 0.6885146424 -1.003966631e-15 -0.1768244523 0 1.311039727 -6.939257772e-16 -0.9949954249)
(1.281722704 -2.753541794e-16 0.6398682796 -5.035047853e-16 -0.1546379502 0 1.17972541 -4.340197343e-16 -1.081049899)
(1.340031459 -4.495361281e-16 0.5844868334 -5.052963723e-16 -0.1325920603 0 1.039007955 -2.877193045e-16 -1.160213398)
(1.390604031 6.540035258e-16 0.5226425549 -7.610222846e-16 -0.1107956256 -8.117571036e-15 0.8901888017 2.143168203e-17 -1.231532837)
(1.432719155 1.534180054e-15 0.4546287407 -5.096513787e-16 -0.0893565695 0 0.7347727838 5.764402255e-16 -1.294172317)
(1.465679824 1.136439488e-15 0.3807374258 -7.682971186e-16 -0.06837964503 0 0.5744275566 3.347831061e-16 -1.347410433)
(1.488695899 1.24005369e-15 0.3013164961 -7.724718513e-16 -0.04796776668 0 0.4109610469 -7.154390739e-17 -1.390648579)
(1.501707296 1.791608813e-15 0.2167627742 -7.122425946e-16 -0.02822303496 0 0.2461485174 -3.851291912e-16 -1.423435354)
(1.506618031 1.086015644e-15 0.08636384639 -7.655604622e-16 -0.009227375764 4.169861241e-15 0.08153338961 -5.66244553e-16 -1.445416293)
(-0.5570176268 -8.122918484e-15 0.0142445741 6.899932416e-15 -0.9240041468 0 0.07875557054 8.668499302e-15 1.527471519)
(-0.7389498106 1.721028965e-14 0.02341601087 9.431809797e-15 -0.8011732166 -3.018179135e-13 0.2031600698 3.02581218e-14 1.524631982)
(-0.7303451427 1.90982747e-14 0.0357873266 -1.017817346e-14 -0.763557121 0 0.319867958 2.171227394e-14 1.520645868)
(-0.7438022113 1.503615762e-15 0.0527354181 -8.54203906e-15 -0.7580332189 0 0.4409388184 1.643805515e-14 1.51405108)
(-0.7379191211 -1.372702722e-14 0.06967722269 -8.538741269e-15 -0.7542349429 0 0.5592048349 1.921381489e-14 1.505230221)
(-0.7298605492 -1.876063999e-14 0.08787395993 0 -0.7505254098 0 0.6743996606 7.012719545e-15 1.494175401)
(-0.7202404156 -1.396381807e-14 0.1076718777 2.499816382e-15 -0.746731109 0 0.7865342638 3.136493293e-15 1.480814371)
(-0.708484573 -7.287482559e-15 0.1291294274 4.455153517e-15 -0.7426195629 0 0.89545976 2.511740772e-15 1.465080912)
(-0.6946424071 -1.223577488e-15 0.1523316008 4.041752733e-15 -0.7380803834 0 1.001091977 3.52702261e-15 1.446885524)
(-0.6786969859 -3.994047617e-17 0.1773348842 3.718095236e-15 -0.733059568 0 1.103369316 1.986083013e-15 1.42612471)
(-0.6605707372 -3.24243516e-16 0.2041412542 5.187896255e-15 -0.7275208514 2.766878003e-14 1.202247242 -5.140311123e-16 1.402701187)
(-0.6401837977 -1.417207342e-15 0.2327219316 3.246577894e-15 -0.721438124 0 1.297706674 1.664732081e-15 1.376507104)
(-0.6174385458 -8.09655979e-17 0.2630267539 3.070695268e-15 -0.7147910061 0 1.389722423 7.639664217e-16 1.347425715)
(-0.5922353936 4.510052382e-16 0.2949723805 1.461485329e-15 -0.7075609287 0 1.478279584 2.923947264e-15 1.315350301)
(-0.5644719445 -1.148830537e-15 0.3284619946 1.398813876e-15 -0.6997321124 0 1.563367341 3.28995137e-15 1.280159195)
(-0.5340368509 1.395110361e-15 0.3633800629 1.345191158e-15 -0.6912892139 0 1.644961775 2.63239533e-15 1.241734272)
(-0.5008172949 3.983246273e-15 0.3995967125 0 -0.6822178417 0 1.723044358 2.973597056e-15 1.199954318)
(-0.4646926849 2.279432345e-15 0.4369692043 0 -0.6725038475 0 1.79757224 1.966128347e-15 1.154686946)
(-0.4255382227 2.88583783e-15 0.4753426912 0 -0.662133231 0 1.868498369 7.502951504e-16 1.105802697)
(-0.3832210481 3.655837904e-15 0.5145515172 0 -0.6510920534 0 1.935743935 1.212481335e-15 1.053156698)
(-0.3376012923 1.960409881e-15 0.5544151379 0 -0.639366099 0 1.999212705 4.877967328e-16 0.9966050528)
(-0.2885327125 1.315811281e-15 0.5947382289 0 -0.6269409866 0 2.058767334 1.357826237e-15 0.9359880694)
(-0.2358602648 1.64988709e-15 0.6353061621 0 -0.6138019884 0 2.114237467 1.267121616e-15 0.8711465511)
(-0.1794255485 3.527709819e-15 0.6758786436 0 -0.5999339886 0 2.165399022 1.640444227e-15 0.8019091122)
(-0.1190678589 4.303295021e-15 0.7161881809 0 -0.5853217346 0 2.211977214 3.87699911e-15 0.7281066671)
(-0.0546290733 3.133202884e-15 0.7559334511 0 -0.5699498371 0 2.253631568 2.241696616e-15 0.6495695508)
(0.01404130589 5.729207619e-15 0.7947702179 -1.063966014e-15 -0.5538032354 -1.702345623e-14 2.289951452 2.461673576e-15 0.5661360469)
(0.08707799459 8.126402448e-15 0.8323027288 0 -0.5368673975 0 2.320442685 1.810653017e-15 0.4776617947)
(0.1645865746 6.24174944e-15 0.868076861 0 -0.5191290441 0 2.344526233 2.183632034e-15 0.3840285972)
(0.246630511 5.080338723e-15 0.9015739538 0 -0.5005768361 0 2.361525876 7.485823749e-16 0.2851620598)
(0.3332148476 5.7396787e-15 0.9322041485 0 -0.4812023906 0 2.370668631 1.502209926e-16 0.1810487695)
(0.4242642078 4.810086781e-15 0.9593102561 0 -0.4610013405 0 2.371084298 1.399067605e-16 0.07175565725)
(0.519602813 2.637979945e-15 0.982163823 1.021282217e-15 -0.4399748461 1.634051547e-14 2.361806326 -1.701301797e-15 -0.04254437961)
(0.6189239405 9.543804461e-16 0.9999839722 0 -0.418130933 0 2.341790536 -4.260745617e-16 -0.1615474426)
(0.7217674394 7.646874518e-16 1.011951812 0 -0.3954865878 0 2.309934437 -6.571526266e-16 -0.2847883905)
(0.8274987239 1.833023257e-15 1.017237138 0 -0.3720692312 0 2.265107624 -8.117686217e-16 -0.4116168361)
(0.9352825453 2.905239804e-15 1.015035418 -1.013271648e-15 -0.3479187545 0 2.206202922 -5.878446245e-16 -0.541181629)
(1.044080603 2.377704453e-15 1.00460758 -1.013220707e-15 -0.3230891551 0 2.132192274 2.587732113e-16 -0.6724081993)
(1.152643226 1.825743697e-15 0.9853223206 -1.01386201e-15 -0.2976497683 0 2.042201684 -1.59957258e-16 -0.804009234)
(1.259530923 1.278863511e-15 0.9566867896 -1.522739808e-15 -0.2716864412 0 1.935592016 1.446099551e-16 -0.9344904577)
(1.363152199 2.334124899e-16 0.9183895727 -1.017082509e-15 -0.2453013977 0 1.812048887 -1.114279767e-16 -1.062191204)
(1.461811271 -5.177664409e-17 0.8703081914 -1.52940241e-15 -0.2186127417 0 1.671659734 -8.791153753e-16 -1.185335681)
(1.553780019 4.993612961e-18 0.812509262 -1.022691934e-15 -0.191752728 0 1.514989244 -1.801597754e-15 -1.302102986)
(1.637375951 2.024598084e-16 0.7452305495 -1.02633091e-15 -0.1648652453 0 1.343109213 -8.03016306e-16 -1.410705483)
(1.711051302 1.720851907e-16 0.6688369364 -5.152492258e-16 -0.1381023447 0 1.157601164 -4.4389686e-16 -1.509468714)
(1.77344097 4.660316375e-16 0.5837630789 -5.175882828e-16 -0.1116200513 0 0.9605013797 -6.881663275e-16 -1.596889206)
(1.823246568 7.307336179e-16 0.4904710587 -5.201746435e-16 -0.08557472958 0 0.754249555 -9.778763609e-18 -1.671664327)
(1.859304689 9.645387258e-16 0.3895423962 -7.845017119e-16 -0.0601231759 0 0.5416150307 5.488806665e-16 -1.732713035)
(1.881632014 1.125586558e-15 0.2815882669 -7.233344927e-16 -0.03541792022 0 0.3253550834 1.299858504e-15 -1.779234962)
(1.890798835 5.33101107e-16 0.1126175072 -7.278561356e-16 -0.01158208342 0 0.1079154357 1.400522538e-15 -1.810592105)
(-0.638745001 -1.987595632e-14 0.01609810249 2.27740343e-14 -1.060097081 0 0.08807740399 4.270801139e-15 1.750234501)
(-0.847428246 -1.510703992e-15 0.02660298738 2.394676296e-14 -0.9188980446 0 0.2270998187 1.430327955e-14 1.747082959)
(-0.8378025131 1.82651443e-14 0.04071714932 5.906681752e-15 -0.8757314733 -9.450690803e-14 0.3575157601 5.929214119e-14 1.742570331)
(-0.8533671034 1.311215824e-14 0.05988921694 0 -0.8694843249 0 0.4928371567 3.282884265e-14 1.735156858)
(-0.846737806 -2.904690005e-15 0.07900069552 0 -0.8651675989 0 0.6249421749 2.859144432e-14 1.725290218)
(-0.8377982984 -1.02074822e-14 0.09948522432 0 -0.8609832136 0 0.7535912084 1.051126859e-14 1.712978559)
(-0.827170064 -9.773194583e-15 0.1217136891 0 -0.8567305228 0 0.8788034667 3.675647582e-15 1.698172025)
(-0.8142300111 -7.215404357e-15 0.1457611835 4.524540148e-15 -0.8521454054 0 1.000425357 -2.893252808e-15 1.680816386)
(-0.7990578641 -4.060607402e-15 0.1717359493 4.104700869e-15 -0.847107007 0 1.118374408 2.683825087e-15 1.660835015)
(-0.7816553034 2.789595655e-15 0.199701261 1.888001289e-15 -0.8415569285 -3.020802063e-14 1.232603525 5.770785612e-15 1.638144696)
(-0.761966965 2.179853938e-15 0.2296728926 5.268694963e-15 -0.8354585913 0 1.34310565 4.536186032e-15 1.61266375)
(-0.7399155464 -2.25712526e-15 0.2616441446 3.297141607e-15 -0.8287875039 0 1.449888698 2.35318785e-15 1.584287635)
(-0.7154081839 -7.126304791e-16 0.2955703727 4.677779555e-15 -0.8215235105 2.494815763e-14 1.552965592 -9.337541229e-16 1.552914093)
(-0.6883520073 -8.087987566e-16 0.3313855001 0 -0.8136498537 0 1.652376128 2.023909136e-15 1.518438288)
(-0.6586375634 -1.664765218e-17 0.369010196 0 -0.8051516554 0 1.748151758 2.763423759e-15 1.480737619)
(-0.6261508223 1.574264953e-15 0.408343061 0 -0.7960140362 0 1.840335912 1.750313115e-15 1.439694931)
(-0.5907655601 3.452662096e-15 0.4492769653 0 -0.7862230716 0 1.92896413 2.896601663e-15 1.395171628)
(-0.5523445414 4.597402561e-15 0.4916906585 0 -0.7757637843 0 2.01406927 2.286035052e-15 1.347028967)
(-0.5107375849 3.105610377e-15 0.5354552294 1.243215413e-15 -0.7646213154 9.945723303e-15 2.095669373 -6.818958373e-16 1.295102738)
(-0.4657782555 2.633039855e-15 0.5804328893 0 -0.7527793179 0 2.173766348 2.273450993e-15 1.239223939)
(-0.4172839679 1.291797391e-15 0.6264754077 2.370610266e-15 -0.7402207983 9.482441065e-15 2.248336807 2.787046556e-15 1.179195772)
(-0.3650512672 3.607341082e-16 0.6734218779 0 -0.7269269686 0 2.31932675 3.235274837e-15 1.114809014)
(-0.3088567787 1.684495875e-15 0.7210928772 0 -0.7128777258 0 2.386639991 3.085528539e-15 1.045824723)
(-0.2484534397 1.238799502e-15 0.7692867619 0 -0.6980509091 0 2.450132416 7.046202984e-16 0.9719879058)
(-0.1835776741 4.281699832e-15 0.8177677492 -1.106628124e-15 -0.6824225633 -8.853024993e-15 2.50959717 6.134703036e-16 0.8930122831)
(-0.113944516 5.834735279e-15 0.8662666344 0 -0.6659668699 0 2.564755008 4.451211799e-16 0.8085963761)
(-0.0392513269 5.61794675e-15 0.9144605635 0 -0.6486560969 0 2.615236446 1.122994709e-17 0.7184191269)
(0.04081206211 6.225775676e-15 0.9619646561 0 -0.6304608074 0 2.660572485 7.324974228e-16 0.6221460296)
(0.1265560902 6.767913618e-15 1.008315804 -1.060983396e-15 -0.611350366 -8.48786717e-15 2.70017088 1.809294346e-15 0.5194401972)
(0.2182785602 7.163176896e-15 1.052955771 0 -0.5912934012 0 2.733301027 4.69600064e-16 0.4099792679)
(0.3162401257 5.869962538e-15 1.095225329 0 -0.5702587436 0 2.759080116 -4.715894834e-16 0.293469664)
(0.4206491058 5.482023121e-15 1.134346526 0 -0.5482167646 0 2.776451525 -1.073843685e-15 0.1696767445)
(0.5316233264 3.178414439e-15 1.169420153 0 -0.5251405243 0 2.784172751 -1.058908739e-16 0.03845180616)
(0.649147115 7.279429376e-16 1.199418909 0 -0.5010081995 0 2.780813425 -2.56056318e-16 -0.1002236846)
(0.7730370908 1.350734946e-15 1.223201828 0 -0.4758052949 0 2.76475145 -1.183115656e-15 -0.2461840065)
(0.9028819976 1.989296948e-15 1.239546459 0 -0.4495274131 0 2.734196791 -8.341899642e-16 -0.3990416693)
(1.03798894 1.758635177e-15 1.247167256 0 -0.4221837063 0 2.687222516 -8.29909294e-16 -0.5581195603)
(1.177337543 1.773620021e-15 1.24478023 0 -0.3938003106 0 2.621834079 -7.489621985e-16 -0.7223964206)
(1.319531163 1.92858715e-15 1.231165146 0 -0.3644239317 0 2.536059351 -2.23179393e-16 -0.8904653522)
(1.462770446 1.854538631e-15 1.205231583 -1.030970444e-15 -0.3341254166 0 2.428069619 2.406938442e-16 -1.060500286)
(1.604865421 2.04264563e-15 1.166108673 -1.032923025e-15 -0.3030026243 0 2.296348368 -6.330050327e-18 -1.230261362)
(1.743265695 2.636230366e-15 1.113207311 -1.035481356e-15 -0.271182103 0 2.139866382 -1.955188044e-16 -1.397131965)
(1.875155696 -4.569318615e-16 1.046272493 0 -0.2388198221 8.308958511e-15 1.958284209 -5.310131361e-16 -1.558208501)
(1.997600395 -2.90301143e-15 0.9654064556 -1.042315465e-15 -0.2060991755 0 1.752120647 1.24836122e-16 -1.710435408)
(2.107729121 4.486665371e-16 0.8710301434 -1.56982187e-15 -0.1732272403 -4.186191654e-15 1.522871698 9.200550765e-16 -1.850786519)
(2.202863805 6.698950424e-16 0.7637775548 -7.884741649e-16 -0.140428196 4.205195546e-15 1.273037662 1.655551357e-16 -1.976423735)
(2.280457838 -1.255945439e-15 0.6444191589 -5.282760851e-16 -0.1079374267 0 1.006088383 2.904579737e-16 -2.084837628)
(2.338576252 -1.346798982e-15 0.5139896549 -7.967199061e-16 -0.07599839749 0 0.726325237 4.405297395e-16 -2.173961372)
(2.377238425 9.130327205e-17 0.3735124713 -8.013818621e-16 -0.04484593875 -4.274036598e-15 0.4381684244 7.576443501e-16 -2.242296605)
(2.394427988 8.745717853e-16 0.1499715546 -7.055924642e-16 -0.01467259502 0 0.145647886 7.593510191e-16 -2.288663208)
(-0.7283370068 -2.056771885e-14 0.01812436381 2.490782373e-14 -1.20940462 0 0.09772401562 -1.640976837e-15 1.994515075)
(-0.9663406624 -3.502604631e-14 0.03013844924 2.675165349e-14 -1.04799118 0 0.2518455761 -4.387046422e-15 1.991014714)
(-0.9556041154 1.159605459e-14 0.04619498855 2.99933314e-14 -0.9987211762 -9.597866049e-14 0.3964120104 2.07203233e-14 1.985881296)
(-0.9734403719 2.596592117e-14 0.06779249106 8.810173384e-15 -0.9916788988 0 0.5464323681 1.801708044e-14 1.977518324)
(-0.9659358488 6.766765888e-15 0.0892494784 0 -0.9867737741 -5.636334129e-14 0.6927666269 2.210183198e-14 1.966455572)
(-0.9560001892 2.740653673e-15 0.112185417 0 -0.9820504093 0 0.8352199379 9.550905509e-15 1.952720861)
(-0.944240172 -1.83551773e-15 0.1369980804 5.156571071e-15 -0.9772782382 0 0.9738083988 4.775117332e-15 1.936284499)
(-0.9299793046 -6.941861316e-15 0.1637784316 6.892500958e-15 -0.9721584171 3.676000511e-14 1.108361185 -9.774204852e-16 1.917115312)
(-0.9133427047 -9.26541645e-15 0.1926481607 4.168623218e-15 -0.9665585926 0 1.238794809 3.175396656e-15 1.895163992)
(-0.8943710424 -1.589721874e-15 0.2236811306 3.834806123e-15 -0.9604177911 0 1.365090539 2.916893217e-15 1.870383231)
(-0.87302949 3.065530501e-15 0.2569150626 1.783581383e-15 -0.9537016805 0 1.487271403 1.082538139e-14 1.842704657)
(-0.8492509784 4.015569434e-15 0.2923565986 0 -0.9463875244 0 1.605369593 5.859463391e-15 1.81204606)
(-0.8229653796 3.402141329e-17 0.3299736948 1.583542146e-15 -0.9384578105 0 1.719455019 2.042347154e-15 1.778332)
(-0.7940873938 -3.29440879e-15 0.3697228666 0 -0.9298995087 0 1.829611549 3.353356923e-15 1.741461711)
(-0.7625164548 -7.946245555e-16 0.411539746 0 -0.9206998304 0 1.935932953 4.401752909e-15 1.701336749)
(-0.7281426231 1.192311196e-15 0.4553483818 0 -0.9108470645 0 2.038531961 4.839338264e-15 1.657841003)
(-0.6908395492 3.441011795e-15 0.501065225 0 -0.9003287353 0 2.137516178 5.574171703e-15 1.610843555)
(-0.6504640373 6.337764987e-15 0.5486022391 0 -0.8891318853 0 2.233004552 6.50376741e-15 1.560200981)
(-0.6068522527 2.739691192e-15 0.5978662496 0 -0.8772419433 2.020121534e-14 2.325102784 7.204924236e-15 1.505741327)
(-0.5598172329 -2.765423288e-16 0.6487607278 0 -0.8646428771 0 2.413913034 8.332645511e-15 1.447273188)
(-0.5091443172 8.299387445e-16 0.7011860565 0 -0.851316315 0 2.499515932 7.6963145e-15 1.384573382)
(-0.4545867783 9.631135546e-16 0.7550357527 0 -0.8372415396 0 2.58197141 5.564112026e-15 1.317386072)
(-0.3958611137 4.776915065e-15 0.8101927007 0 -0.8223946756 -9.268708719e-15 2.661303076 4.886900233e-15 1.245417195)
(-0.3326456418 6.493087027e-15 0.8665224945 0 -0.8067485963 0 2.737494627 2.225851869e-15 1.168327593)
(-0.2645742846 4.631539022e-15 0.9238675531 0 -0.7902723831 8.990892813e-15 2.810471815 -2.712002694e-15 1.085732674)
(-0.1912336355 3.955456797e-15 0.9820281538 0 -0.7729310612 0 2.880086214 -1.250657414e-15 0.9971957262)
(-0.1121649255 5.321786123e-15 1.040764249 0 -0.754685187 0 2.946104463 -2.802763359e-15 0.9022284652)
(-0.02685963769 5.688121822e-15 1.099766422 0 -0.7354909333 0 3.008179971 -1.24976765e-15 0.8002877839)
(0.06523968213 6.667068685e-15 1.15863228 0 -0.7152996369 0 3.065827355 -1.609917e-15 0.6907833601)
(0.1647190703 8.258760153e-15 1.216852468 0 -0.6940580661 0 3.118399501 -2.350189494e-15 0.5730788426)
(0.2721912513 7.906972105e-15 1.273780823 0 -0.6717091276 0 3.165047866 -1.378270704e-15 0.4465115685)
(0.3882770441 4.259728152e-15 1.328614014 2.115403311e-15 -0.6481921116 1.692322649e-14 3.204684431 -2.30916895e-15 0.310411462)
(0.5135627259 1.477145091e-15 1.380358391 0 -0.623444075 0 3.235946897 4.693549538e-16 0.1641258916)
(0.6485613322 2.575685524e-15 1.427797691 0 -0.5974016957 0 3.257147885 3.0378792e-16 0.007077143991)
(0.7936531061 1.620345641e-15 1.469503381 2.094992345e-15 -0.5700036525 8.379969378e-15 3.266246506 -3.741884705e-16 -0.161180738)
(0.9490097652 1.299186713e-15 1.503824185 0 -0.5411940313 0 3.260818333 -4.422614878e-17 -0.3408860826)
(1.114489573 2.750474396e-15 1.528879423 0 -0.5109264839 0 3.238037191 -1.835639087e-16 -0.5319665736)
(1.289526988 1.38078099e-15 1.542620463 1.045025672e-15 -0.4791700016 8.360205376e-15 3.194700159 -8.706901484e-16 -0.7339232859)
(1.473016129 2.093416567e-16 1.54288936 0 -0.4459150503 0 3.127292589 -1.005360342e-15 -0.9456916166)
(1.663167823 9.457995891e-16 1.527513147 0 -0.411180928 0 3.032105437 -1.841839148e-15 -1.165521731)
(1.857409901 1.000860836e-15 1.494457961 0 -0.3750239245 0 2.905441506 -1.350575616e-16 -1.390861029)
(2.052318303 9.006437723e-16 1.441985668 0 -0.337544724 0 2.74391919 7.559439315e-16 -1.618274143)
(2.24363645 -5.933217378e-16 1.368843082 -1.054794201e-15 -0.2988954278 0 2.544851823 1.620424173e-15 -1.843457504)
(2.426436117 -2.458745116e-15 1.274442212 -1.058547403e-15 -0.2592832787 0 2.306710183 6.330195959e-16 -2.061378716)
(2.595409865 1.421971384e-16 1.158908233 -1.594268646e-15 -0.218970416 -4.251383056e-15 2.029579422 2.812261598e-16 -2.266541147)
(2.745169481 1.621316382e-15 1.023002729 -1.067670724e-15 -0.1782679991 0 1.715539737 6.986282323e-16 -2.453394185)
(2.870434293 1.765639454e-16 0.8680488564 -5.365029084e-16 -0.1375280216 0 1.368931965 1.586767222e-16 -2.616790653)
(2.96744967 1.97540819e-17 0.6960447411 -5.394181298e-16 -0.09713412469 0 0.9962783983 -1.763379806e-16 -2.752452804)
(3.03589192 4.886614584e-16 0.5088898358 -6.78218126e-16 -0.0574596031 0 0.6048630994 -8.639733959e-16 -2.857352851)
(3.068670401 5.34961537e-16 0.2052161093 -7.165806286e-16 -0.01881792121 0 0.2017430832 -7.154229561e-16 -2.929173675)
(-0.8257647657 -1.657562068e-14 0.020341222 1.445470349e-14 -1.371909538 0 0.1075654645 -4.149981741e-15 2.260265822)
(-1.095644136 -2.49613361e-14 0.03407549362 1.975874629e-14 -1.188421361 0 0.2770560956 -1.225091071e-14 2.256375995)
(-1.083696713 2.745604026e-15 0.05230839471 2.741439513e-14 -1.132489859 0 0.436021698 -2.698610997e-14 2.250507341)
(-1.10394127 1.157960551e-14 0.07655120696 8.947380524e-15 -1.124574007 0 0.6009893104 -2.86007654e-15 2.241027887)
(-1.095400607 5.607422509e-15 0.1005443233 7.155140996e-15 -1.118998727 0 0.7617382514 4.75134097e-16 2.228573453)
(-1.084316207 4.62909603e-15 0.1261142106 6.019294394e-15 -1.113659981 0 0.9181298057 3.670528262e-15 2.213182093)
(-1.071247802 -2.608210745e-16 0.1536769045 2.618439023e-15 -1.108291935 0 1.070160247 6.309653589e-15 2.194855485)
(-1.055472202 -6.213727652e-15 0.1833308207 4.666561874e-15 -1.102557665 0 1.217630144 8.697916636e-15 2.173599116)
(-1.03718424 -7.532731918e-15 0.2152057937 4.233544173e-15 -1.096313836 0 1.360464313 7.549610414e-15 2.149413576)
(-1.016471022 -4.761669373e-15 0.2493936126 3.894528305e-15 -1.089499995 0 1.49867166 8.223506275e-15 2.122284662)
(-0.9933174325 -1.485879915e-16 0.2859546091 5.434075119e-15 -1.082084895 0 1.632286551 9.170341441e-15 2.092169798)
(-0.9676887132 6.349625529e-15 0.3249021696 6.801272533e-15 -1.07404884 0 1.761380626 8.89779803e-15 2.059033095)
(-0.9395411844 1.614485828e-15 0.3662261105 0 -1.065380247 0 1.886074136 9.003923289e-15 2.022824256)
(-0.9088076192 -3.217148629e-15 0.4098993529 6.123346089e-15 -1.056070416 0 2.006494279 7.536861237e-15 1.983471218)
(-0.8754118286 -1.539595387e-15 0.4558774981 2.930382299e-15 -1.04611173 0 2.122808577 7.083983655e-15 1.940907881)
(-0.8392586836 3.302399759e-16 0.504113289 2.818047795e-15 -1.035497182 0 2.235191136 7.078140418e-15 1.895034234)
(-0.800235288 1.668904573e-15 0.5545514775 2.721271151e-15 -1.024218538 0 2.343839721 7.614356207e-15 1.845748428)
(-0.7582084389 2.853783927e-15 0.6071412773 5.274864155e-15 -1.012266701 0 2.448954997 9.411572732e-15 1.792912578)
(-0.7130165351 1.059349765e-15 0.6618354917 -2.564477917e-15 -0.9996303773 -1.025791167e-14 2.55075076 1.274623441e-14 1.736374839)
(-0.664470434 2.078283492e-15 0.7185873754 2.500778256e-15 -0.986295975 -1.000311302e-14 2.649436299 1.043716283e-14 1.675936754)
(-0.612343604 4.512784455e-15 0.7773602182 0 -0.972246943 0 2.745218826 8.793219095e-15 1.611373704)
(-0.5563672792 3.629313328e-15 0.8381192756 0 -0.9574631705 0 2.838292857 6.506325897e-15 1.542410406)
(-0.4962249809 5.775149447e-15 0.9008340493 0 -0.9419204277 0 2.928837891 4.397072331e-15 1.468720644)
(-0.4315427725 1.063078678e-14 0.9654696978 -2.315661703e-15 -0.9255898011 -9.262646812e-15 3.017003338 4.946484897e-15 1.389915515)
(-0.3618781396 8.439854008e-15 1.031976554 2.282728606e-15 -0.9084369003 9.130914426e-15 3.102900365 2.846073876e-15 1.305537902)
(-0.2867199823 5.993670587e-15 1.100290348 0 -0.890421054 0 3.186588707 1.480209792e-15 1.215048374)
(-0.2054723815 5.533089509e-15 1.170309395 2.228907812e-15 -0.8714950323 1.783126249e-14 3.268055336 -8.688980836e-16 1.117816463)
(-0.1174400896 4.696807682e-15 1.241877153 0 -0.8516037576 0 3.347190093 -6.542991824e-16 1.013115853)
(-0.02183523062 8.249896756e-15 1.314760425 0 -0.8306837016 0 3.423763398 -2.517663348e-15 0.9001055354)
(0.08223677632 6.823630974e-15 1.388614863 2.17269842e-15 -0.8086625614 8.690793679e-15 3.497386923 -5.65526848e-16 0.7778306068)
(0.1957831612 5.889733648e-15 1.462952476 0 -0.7854583463 0 3.567460673 1.450371069e-15 0.6452204622)
(0.3199136612 2.75676687e-15 1.537111827 2.148348002e-15 -0.7609791761 8.593392009e-15 3.63312755 2.460253449e-15 0.50108507)
(0.4558332035 -5.39051017e-16 1.610193242 0 -0.7351232671 0 3.693199488 2.357579058e-15 0.34413254)
(0.6048031052 2.009749659e-15 1.680994293 0 -0.7077792663 0 3.746071381 2.463235661e-15 0.1729966315)
(0.7680902798 1.853355753e-15 1.747979967 0 -0.6788279579 0 3.789632074 2.691778417e-15 -0.01371405125)
(0.9469030397 1.701138837e-15 1.80922389 0 -0.6481444252 0 3.821159796 1.962645855e-15 -0.2173272937)
(1.142261544 3.070049258e-15 1.862336955 0 -0.6156015987 0 3.837214907 1.91585186e-15 -0.4389971479)
(1.354823029 3.053312093e-15 1.904439759 0 -0.5810762475 0 3.833533414 2.062354653e-15 -0.6795347795)
(1.584674188 3.486670902e-15 1.932177853 0 -0.5444570766 0 3.804966792 1.295922823e-15 -0.9391730965)
(1.831046725 3.489057431e-16 1.941778183 1.063331788e-15 -0.5056552567 8.506654307e-15 3.745474359 1.14894904e-15 -1.217284)
(2.091968856 -2.301313084e-15 1.929162825 0 -0.4646184742 0 3.648218611 2.328073949e-15 -1.512029855)
(2.36392049 -3.848498092e-16 1.890199203 0 -0.4213480289 0 3.505835461 1.358374315e-15 -1.81998914)
(2.641540057 -1.998078729e-16 1.821115571 0 -0.3759176701 0 3.310925624 8.479689164e-16 -2.135844912)
(2.917491868 -5.396161338e-16 1.718983351 0 -0.3284925706 0 3.056837153 -5.477662337e-16 -2.452231867)
(3.182636645 3.067430495e-16 1.582226022 -1.079398222e-15 -0.2793445986 0 2.738726986 -2.19912494e-15 -2.759885525)
(3.426355598 9.33936643e-16 1.410972284 -1.084298325e-15 -0.2288594609 0 2.354876545 -3.076495634e-16 -3.048205488)
(3.637225329 3.985340147e-16 1.207228883 -5.448582524e-16 -0.1775378669 4.35886602e-15 1.908198217 5.897564426e-16 -3.306219955)
(3.806693699 6.347530223e-16 0.975023171 -5.478188747e-16 -0.1259820146 0 1.407112701 -2.097651325e-16 -3.524090228)
(3.932394138 1.123573195e-15 0.7183029745 -6.887805026e-16 -0.07480337232 0 0.8633149349 -9.680423333e-16 -3.694655045)
(3.996704045 5.790960869e-16 0.2911786948 -6.930861447e-16 -0.02454049657 0 0.2896858661 -1.084422615e-15 -3.812700373)
(-0.9308590861 -1.09095133e-14 0.02276727918 7.33990908e-15 -1.547365985 0 0.1174473392 -6.183731776e-15 2.547089303)
(-1.235114594 -1.518702189e-14 0.03847554317 1.254154066e-14 -1.339956891 0 0.3023382582 -1.8705348e-14 2.542745693)
(-1.221856557 -4.259580235e-16 0.05916733727 1.237392953e-14 -1.276812899 0 0.4757561176 -3.885588149e-14 2.536004158)
(-1.244612292 4.760769622e-15 0.08631081353 9.086725242e-15 -1.267943582 0 0.6557207373 -1.294569034e-14 2.525188367)
(-1.234827179 1.263134887e-15 0.1130656396 7.266573734e-15 -1.261604905 0 0.830848906 -1.026625109e-14 2.511073521)