/*--------------------------------*- C++ -*----------------------------------*\
  =========                 |
  \\      /  F ield         | OpenFOAM: The Open Source CFD Toolbox
   \\    /   O peration     | Website:  https://openfoam.org
    \\  /    A nd           | Version:  7
     \\/     M anipulation  |
\*---------------------------------------------------------------------------*/
FoamFile
{
    version     2.0;
    format      ascii;
    class       volVectorField;
    location    "0.0021";
    object      grad(generalizedNewtonian:nu);
}
// * * * * * * * * * * * * * * * * * * * * * * * * * * * * * * * * * * * * * //

dimensions      [0 1 -1 0 0 0 0];

internalField   nonuniform List<vector> 
1167
(
(-5291.197201 0 180379.4396)
(-1394.012512 0 179374.5825)
(-4683.128376 0 159841.8005)
(-1108.651975 0 158940.0169)
(-5453.198512 0 159038.1516)
(-11398.23103 -1.102453413e-09 157456.413)
(-12514.05793 -8.816222349e-10 155851.4208)
(-14871.75273 0 153986.1708)
(-17001.8547 0 151872.8601)
(-18853.59175 2.874957119e-10 149591.6159)
(-20503.60962 0 147189.6293)
(-21941.64351 2.399325709e-10 144700.5332)
(-23183.17473 -2.23186911e-10 142167.2807)
(-24251.93831 0 139636.6776)
(-25144.92017 0 137122.9939)
(-25889.47087 0 134663.1759)
(-26502.27861 0 132278.8039)
(-26992.35374 0 129977.9549)
(-27381.10975 0 127794.243)
(-27677.14434 0 125717.2283)
(-27896.98929 1.579913487e-10 123778.7261)
(-28048.19186 0 121965.3187)
(-28142.21136 -1.506319458e-10 120300.678)
(-28185.54566 0 118771.1436)
(-28182.69613 0 117394.0789)
(-28139.27839 1.426623771e-10 116154.8196)
(-28056.15466 0 115066.7404)
(-27936.21524 0 114115.0779)
(-27774.39457 0 113307.2162)
(-27570.95309 0 112628.4828)
(-27317.63241 0 112081.658)
(-27013.79783 0 111652.1505)
(-26648.47581 0 111336.5992)
(-26218.99827 -1.323545803e-10 111120.3529)
(-25721.62982 0 110993.43)
(-25152.71879 -6.569297865e-11 110939.7708)
(-24516.65275 0 110945.0882)
(-23814.3407 0 110986.3478)
(-23060.34159 0 111047.1015)
(-22267.81089 -6.538419103e-11 111098.934)
(-21459.06158 0 111122.2795)
(-20654.36759 -6.550932737e-11 111082.6768)
(-19881.33173 0 110960.4184)
(-19164.82442 0 110724.7942)
(-18529.81909 0 110359.7511)
(-17997.76406 0 109844.1892)
(-17581.16559 3.324957096e-11 109173.0524)
(-17271.09146 0 108334.387)
(-17017.10043 0 107335.5737)
(-16868.01105 0 106195.6717)
(-16779.59689 0 104960.771)
(-16630.38963 -3.415950329e-11 103429.2179)
(-4145.248254 0 141640.619)
(-856.4990198 2.472492347e-09 140830.7667)
(-4751.432078 0 140918.7163)
(-10068.05762 0 139492.1476)
(-11030.49693 0 138045.5124)
(-13141.49534 0 136358.2804)
(-15060.71101 0 134453.8059)
(-16746.94434 0 132394.9341)
(-18257.33924 0 130218.7369)
(-19594.28697 0 127956.2354)
(-20773.74854 -2.26662646e-10 125662.0124)
(-21800.0145 0 123357.7968)
(-22684.4169 0 121065.3843)
(-23448.26855 0 118826.6086)
(-24094.83214 0 116642.9224)
(-24645.85797 0 114545.4514)
(-25108.06805 0 112540.9244)
(-25496.82257 0 110644.914)
(-25822.21752 0 108866.1348)
(-26093.02951 0 107211.4112)
(-26316.77848 0 105688.8984)
(-26499.57545 0 104301.2677)
(-26645.16632 0 103052.4982)
(-26755.98271 0 101946.8718)
(-26836.21024 0 100981.7893)
(-26880.65349 0 100162.2896)
(-26890.38559 6.97280767e-11 99482.91813)
(-26856.04555 0 98946.59003)
(-26776.79234 0 98547.9823)
(-26639.1219 0 98284.92806)
(-26439.42331 0 98150.52892)
(-26166.29315 0 98141.37107)
(-25811.71477 -6.693075137e-11 98244.94816)
(-25372.93822 0 98456.11343)
(-24839.75756 0 98753.47264)
(-24217.50917 0 99128.24397)
(-23505.609 0 99554.92629)
(-22716.64329 0 100012.3517)
(-21858.13178 0 100472.2434)
(-20950.71979 0 100900.1073)
(-20018.07258 0 101266.2117)
(-19084.08352 0 101530.6602)
(-18179.61695 0 101663.1887)
(-17332.21091 0 101630.9004)
(-16567.03994 0 101413.9571)
(-15887.65706 0 100996.9713)
(-15278.92695 0 100376.704)
(-14822.68995 0 99580.63477)
(-14270.58522 0 98643.76109)
(-13435.06449 0 97406.58491)
(-3669.780654 0 125551.7842)
(-633.1558308 0 124825.5467)
(-4128.225147 1.548401181e-09 124903.8522)
(-8887.347939 0 123618.3373)
(-9710.493013 0 122312.3269)
(-11605.81814 0 120793.3141)
(-13337.26331 0 119078.4353)
(-14867.79665 0 117215.4443)
(-16249.99797 0 115236.836)
(-17495.51847 2.47464105e-10 113186.245)
(-18612.94244 -2.301927954e-10 111098.9518)
(-19598.34779 0 108991.0335)
(-20472.61855 -2.043753073e-10 106900.6005)
(-21243.44456 0 104844.3542)
(-21920.88563 0 102837.7715)
(-22520.18756 0 100907.4457)
(-23048.88893 0 99052.64685)
(-23519.02488 0 97302.09823)
(-23938.92449 -8.14753653e-11 95647.96492)
(-24316.84413 0 94114.10806)
(-24660.32052 -7.76801572e-11 92693.09936)
(-24971.99971 0 91402.48632)
(-25259.10098 0 90237.20301)
(-25519.64669 0 89209.1808)
(-25756.36738 7.252398074e-11 88316.97599)
(-25968.37598 0 87562.95478)
(-26148.70563 0 86950.34271)
(-26297.41674 0 86481.09313)
(-26399.84639 6.953260786e-11 86154.05474)
(-26452.55997 0 85970.0699)
(-26442.78984 0 85929.46028)
(-26358.79027 0 86025.95083)
(-26193.66408 0 86262.26507)
(-25928.60289 0 86624.5356)
(-25560.95514 0 87108.61459)
(-25082.18425 0 87703.11635)
(-24484.5199 0 88388.0759)
(-23772.27913 0 89146.03385)
(-22940.98196 0 89947.7474)
(-22002.87547 0 90764.30901)
(-20969.58668 0 91553.82432)
(-19858.57259 0 92278.17637)
(-18699.8477 -6.806698813e-11 92885.17894)
(-17527.55999 0 93334.66814)
(-16380.75339 3.429328203e-11 93581.29941)
(-15277.97172 -3.444896191e-11 93595.67122)
(-14249.8563 0 93359.29422)
(-13422.2068 0 92899.45379)
(-12373.40222 0 92252.84446)
(-10857.98013 0 91293.43368)
(-3250.452901 0 111363.0171)
(-436.0597552 0 110713.3863)
(-3575.08041 1.572514374e-09 110782.8034)
(-7837.867946 0 109623.2051)
(-8542.200247 4.617284918e-10 108449.2495)
(-10245.97355 0 107084.668)
(-11802.84983 0 105534.8118)
(-13186.51396 -3.011379619e-10 103843.6654)
(-14455.63919 0 102045.811)
(-15618.44166 0 100184.3725)
(-16667.83988 0 98275.98925)
(-17615.10268 0 96347.25889)
(-18473.75577 -2.075580361e-10 94431.70355)
(-19245.53119 0 92533.08532)
(-19946.43471 0 90684.66247)
(-20582.23636 0 88889.54046)
(-21165.37474 0 87169.23933)
(-21703.24453 0 85527.51913)
(-22203.8792 -8.274417805e-11 83980.85358)
(-22675.99521 0 82529.5113)
(-23122.57122 0 81187.34586)
(-23552.13813 0 79953.5646)
(-23963.84617 7.592926182e-11 78839.86792)
(-24364.52701 0 77846.17084)
(-24747.78693 -7.365339392e-11 76979.85548)
(-25114.82664 0 76242.41712)
(-25466.76213 0 75640.79287)
(-25789.24977 0 75174.51894)
(-26080.30143 0 74849.47335)
(-26328.91755 0 74670.02361)
(-26521.65802 0 74633.42403)
(-26650.89318 -6.931753571e-11 74747.44922)
(-26697.01021 0 75009.75952)
(-26646.91232 0 75417.97164)
(-26492.7612 -3.432435457e-11 75972.29302)
(-26214.21777 0 76663.43836)
(-25798.91502 0 77484.59113)
(-25241.04349 -3.424340122e-11 78417.77262)
(-24525.5261 0 79442.989)
(-23646.25577 0 80536.4501)
(-22604.90237 0 81659.28365)
(-21399.27299 0 82768.81586)
(-20048.25845 0 83811.55969)
(-18581.81397 0 84729.23812)
(-17036.37999 0 85456.49339)
(-15457.31526 0 85935.92186)
(-13933.02581 0 86125.85231)
(-12652.01996 0 86031.70489)
(-11062.00017 0 85688.49884)
(-8845.822734 0 84995.60096)
(-2881.638062 0 98870.86093)
(-262.2075393 0 98288.58388)
(-3082.504897 0 98352.12346)
(-6910.259551 0 97309.30687)
(-7508.870311 0 96256.26691)
(-9035.878475 0 95024.02287)
(-10431.07532 0 93619.88272)
(-11683.65506 0 92081.76848)
(-12850.35049 0 90452.6089)
(-13928.43116 0 88755.83655)
(-14915.05815 0 87006.85627)
(-15825.06121 0 85243.5076)
(-16658.57786 0 83476.35781)
(-17427.01269 0 81725.86663)
(-18140.06559 0 80010.58548)
(-18804.21404 0 78338.42577)
(-19428.25068 0 76728.09349)
(-20021.18112 0 75182.40732)
(-20588.04785 8.403281239e-11 73716.34909)
(-21136.20272 8.19455019e-11 72333.32498)
(-21672.24051 0 71039.85555)
(-22198.16494 0 69843.66083)
(-22722.25955 0 68748.3782)
(-23238.96901 7.587960268e-11 67759.60347)
(-23753.29926 -7.480045097e-11 66880.70651)
(-24265.04572 0 66120.63684)
(-24765.45155 -7.303685117e-11 65478.34361)
(-25254.12168 0 64962.33871)
(-25723.62191 0 64579.26871)
(-26159.66736 -7.119498182e-11 64329.69717)
(-26555.1683 0 64222.23584)
(-26899.32704 -3.519853367e-11 64262.07464)
(-27171.52139 0 64452.58876)
(-27356.90268 0 64800.54305)
(-27442.39378 0 65305.23249)
(-27408.55274 0 65966.68311)
(-27232.77301 0 66784.80125)
(-26896.84651 0 67751.69767)
(-26383.728 0 68854.54053)
(-25670.44813 -3.484325604e-11 70077.04444)
(-24731.60875 0 71391.14896)
(-23551.72333 0 72760.1984)
(-22124.43013 0 74140.69819)
(-20451.61241 0 75472.86298)
(-18561.50101 0 76688.0811)
(-16503.6797 0 77699.11743)
(-14417.02089 -1.785391522e-11 78413.50132)
(-12569.31528 0 78780.69357)
(-10329.63541 0 78799.88236)
(-7353.622197 0 78390.80485)
(-2554.877349 0 87865.08375)
(-109.9540737 0 87344.10109)
(-2649.835395 0 87415.31219)
(-6089.625605 0 86484.79288)
(-6590.137973 0 85541.71754)
(-7956.642376 0 84435.59756)
(-9204.716941 0 83168.65435)
(-10340.57502 0 81785.46388)
(-11412.68715 0 80315.53418)
(-12407.62943 1.296033681e-10 78772.87501)
(-13335.01979 0 77184.88751)
(-14202.46158 0 75574.96932)
(-15010.2112 0 73950.09648)
(-15769.37802 0 72341.29003)
(-16485.09656 0 70747.05781)
(-17165.51663 0 69192.78171)
(-17818.50942 0 67676.86475)
(-18449.68079 0 66218.42721)
(-19068.20616 0 64816.51709)
(-19675.04767 0 63484.45193)
(-20278.87373 0 62224.04164)
(-20885.74788 0 61041.587)
(-21493.56507 0 59941.1466)
(-22109.3826 0 58927.77099)
(-22732.12666 0 58007.2908)
(-23358.20225 0 57180.67144)
(-23989.33799 0 56455.98056)
(-24621.91413 0 55839.63379)
(-25244.71821 -7.283205919e-11 55335.32592)
(-25850.56313 0 54949.2165)
(-26433.2218 0 54691.65365)
(-26979.2177 0 54568.524)
(-27472.37777 0 54587.77725)
(-27894.67645 0 54759.93324)
(-28229.42653 0 55091.90107)
(-28457.63437 0 55589.51056)
(-28554.97986 0 56257.99615)
(-28495.5003 0 57100.93737)
(-28249.47584 0 58115.66605)
(-27783.57261 0 59295.25488)
(-27061.9317 1.77264581e-11 60627.91967)
(-26050.62229 0 62097.08301)
(-24720.99216 0 63673.45378)
(-23049.09146 0 65312.6829)
(-21009.5065 0 66945.86508)
(-18588.85006 0 68468.98573)
(-15926.17708 1.813196853e-11 69761.56394)
(-13367.7851 -1.823049307e-11 70716.28966)
(-10293.23256 0 71240.06244)
(-6425.208243 0 71213.48099)
(-2268.799177 0 78180.1801)
(11.33969044 0 77722.65376)
(-2279.616364 0 77824.37857)
(-5371.040392 0 76996.89895)
(-5785.061512 0 76157.32362)
(-7006.360011 4.068632606e-10 75169.70458)
(-8126.852706 0 74036.98563)
(-9158.947484 0 72800.22864)
(-10135.79228 0 71473.58048)
(-11055.91799 1.3162178e-10 70072.90598)
(-11926.68092 0 68630.39325)
(-12745.7062 0 67150.51645)
(-13523.39621 1.087036107e-10 65656.67614)
(-14263.05734 0 64159.71183)
(-14972.1772 0 62673.76819)
(-15656.91117 0 61208.35822)
(-16322.34455 0 59775.58826)
(-16978.06547 0 58378.32595)
(-17625.05114 0 57028.35998)
(-18273.7582 0 55728.32145)
(-18924.46314 0 54485.78132)
(-19582.27699 0 53302.75663)
(-20254.78414 7.953230885e-11 52185.11134)
(-20939.48464 0 51134.82375)
(-21637.15786 0 50154.18925)
(-22351.25444 0 49249.07012)
(-23080.62817 3.766474277e-11 48423.90821)
(-23820.51077 0 47681.1306)
(-24564.19825 0 47025.83796)
(-25307.35921 0 46466.81053)
(-26043.89082 -3.648947169e-11 46010.56694)
(-26761.39641 0 45664.85246)
(-27447.25734 0 45440.11926)
(-28086.81356 0 45347.36554)
(-28662.03261 0 45400.41769)
(-29152.53952 0 45610.75347)
(-29533.72265 0 45990.41478)
(-29776.30938 0 46550.30597)
(-29847.32397 0 47297.52817)
(-29708.83315 -1.796849474e-11 48237.58228)
(-29318.50791 1.800252572e-11 49370.69308)
(-28629.38919 0 50689.01488)
(-27584.14818 0 52173.16985)
(-26109.45528 0 53793.93692)
(-24117.40572 0 55516.16159)
(-21548.15499 0 57309.16524)
(-18512.49311 0 59144.28107)
(-15306.0716 -9.257205206e-12 60919.8422)
(-11252.23747 9.311373155e-12 62294.12355)
(-6196.845478 0 62772.95487)
(-2024.88213 0 69780.68464)
(89.50654233 0 69389.46692)
(-1973.135884 0 69490.54107)
(-4741.019128 3.071001278e-10 68712.8738)
(-5076.500578 -4.91170507e-10 67909.38678)
(-6170.980889 -2.065996939e-10 66967.25071)
(-7176.13442 0 65890.35741)
(-8106.597655 0 64704.82214)
(-8992.60468 0 63424.26766)
(-9838.980274 0 62075.60518)
(-10645.5898 0 60673.98325)
(-11415.22282 0 59231.7194)
(-12154.63125 0 57773.08965)
(-12868.18549 0 56301.20674)
(-13560.84976 0 54838.73208)
(-14240.22995 0 53387.52874)
(-14908.28954 0 51963.51781)
(-15571.77131 0 50570.93453)
(-16239.90977 8.802034227e-11 49215.92825)
(-16910.57176 0 47905.61335)
(-17592.06857 0 46642.72223)
(-18289.47701 0 45433.87716)
(-19001.22454 0 44276.80708)
(-19730.81438 0 43175.29056)
(-20482.3075 -3.917494315e-11 42132.60172)
(-21255.39032 0 41150.41994)
(-22048.38083 0 40229.0365)
(-22859.24201 0 39370.64716)
(-23685.70064 0 38578.75091)
(-24523.53861 0 37858.99053)
(-25366.60615 0 37215.90263)
(-26208.12815 0 36657.05019)
(-27038.09837 0 36192.36465)
(-27845.32608 0 35832.52763)
(-28616.00709 0 35592.48421)
(-29331.05703 0 35489.70447)
(-29967.66257 -1.821437777e-11 35540.92475)
(-30494.7195 0 35766.6937)
(-30876.29011 0 36186.68729)
(-31069.79761 0 36819.23087)
(-31019.03145 -1.828288108e-11 37677.74816)
(-30657.82794 0 38771.99295)
(-29919.82251 0 40107.84229)
(-28749.7987 9.224564282e-12 41696.72039)
(-27113.52907 0 43558.87875)
(-25002.28493 0 45701.57005)
(-22420.36025 0 48073.33598)
(-19125.7943 -9.401368701e-12 50520.89681)
(-13725.05474 -9.456380213e-12 52670.9782)
(-6695.678058 0 53859.06206)
(-1822.518037 0 62147.97775)
(165.8348681 0 61920.59217)
(-1657.635852 0 61935.64434)
(-4111.03891 0 61185.44714)
(-4362.098523 -2.494100133e-10 60394.96247)
(-5333.129292 0 59486.00847)
(-6220.135279 0 58452.28725)
(-7043.396354 0 57318.3421)
(-7839.724443 0 56107.76216)
(-8609.93015 0 54847.51024)
(-9350.533096 1.2627869e-10 53544.2922)
(-10069.38553 0 52225.69992)
(-10768.98347 0 50898.04334)
(-11453.79235 0 49581.39464)
(-12130.18488 0 48277.64921)
(-12800.03962 0 47003.08678)
(-13471.0545 0 45758.13758)
(-14144.32049 0 44551.57536)
(-14824.56481 -8.939117646e-11 43383.6504)
(-15519.12573 8.717076832e-11 42256.72978)
(-16228.74568 0 41171.25961)
(-16953.3612 0 40124.02855)
(-17697.95688 0 39114.24059)
(-18466.51884 0 38140.81507)
(-19257.97115 0 37200.04044)
(-20072.61657 0 36287.79565)
(-20910.26806 0 35401.29811)
(-21770.45275 0 34538.47543)
(-22651.43134 0 33697.63482)
(-23550.93647 0 32878.233)
(-24466.37689 -3.763486562e-11 32079.63286)
(-25393.68795 0 31307.09983)
(-26326.01099 0 30565.83195)
(-27257.56671 0 29863.07982)
(-28182.18107 0 29212.14049)
(-29084.89857 0 28627.08388)
(-29948.89267 0 28130.58997)
(-30752.65616 0 27747.70146)
(-31463.68768 0 27509.86709)
(-32038.09401 0 27451.88337)
(-32423.31328 0 27611.60201)
(-32562.78497 0 28027.95419)
(-32404.20354 0 28737.30119)
(-31900.96465 0 29759.35004)
(-30962.26822 0 31077.17307)
(-29407.63685 0 32615.31711)
(-27059.22488 0 34290.97308)
(-23604.76154 -4.773893096e-12 36202.3486)
(-17367.44452 0 38743.84727)
(-8664.924273 0 42431.04121)
(-1768.507464 0 55658.28006)
(218.330036 6.99465676e-10 55543.20332)
(-1327.405819 0 55539.25716)
(-3530.531202 0 55007.30705)
(-3712.929958 0 54450.01889)
(-4585.266456 0 53803.57711)
(-5376.570942 0 53053.67788)
(-6125.556622 0 52214.24512)
(-6867.039154 0 51308.27716)
(-7592.607878 1.378674959e-10 50339.27142)
(-8305.747144 0 49317.38783)
(-9009.146526 1.203835664e-10 48255.68227)
(-9705.4367 0 47156.88539)
(-10395.21962 0 46032.39982)
(-11081.99742 0 44886.07673)
(-11771.99812 0 43720.43619)
(-12461.47068 0 42542.05827)
(-13157.00153 0 41351.20527)
(-13862.02975 0 40149.72668)
(-14574.88932 0 38937.8847)
(-15298.02645 0 37714.88986)
(-16035.14817 0 36479.98567)
(-16786.90381 0 35233.80765)
(-17553.41671 0 33972.82127)
(-18334.99484 0 32695.12417)
(-19132.02064 0 31399.32088)
(-19944.86666 0 30085.17012)
(-20772.56228 0 28752.58377)
(-21614.54286 0 27402.89186)
(-22467.81241 0 26036.2612)
(-23333.83609 0 24659.62231)
(-24213.7682 -3.802608895e-11 23278.26342)
(-25101.1741 0 21900.4827)
(-25997.05417 0 20539.77759)
(-26898.71768 3.765918527e-11 19210.46127)
(-27802.82804 0 17930.69669)
(-28705.40191 0 16727.59143)
(-29592.5295 0 15630.38325)
(-30447.80559 -1.879707318e-11 14676.96914)
(-31244.36263 0 13912.11419)
(-31939.17835 0 13388.92423)
(-32471.18037 0 13163.53089)
(-32750.48344 0 13289.5934)
(-32640.22482 0 13803.92567)
(-31947.16962 0 14724.48776)
(-30541.39412 -4.798061638e-12 16079.65856)
(-28715.67508 0 17955.87598)
(-27074.97887 0 20605.22188)
(-25018.45841 0 24727.46585)
(-16718.87282 0 31296.58721)
(-1708.102528 2.257672283e-09 50592.3638)
(241.2718187 0 50213.95211)
(-1207.364166 0 50285.4055)
(-3295.188708 -3.493716254e-10 49931.74633)
(-3439.487612 0 49508.09472)
(-4246.126326 0 49034.01248)
(-4963.329646 0 48472.0533)
(-5640.95298 -1.822169405e-10 47842.12307)
(-6307.896124 0 47157.2005)
(-6956.077111 1.52071065e-10 46414.12466)
(-7590.803023 0 45631.45348)
(-8213.916872 0 44805.73605)
(-8827.772996 0 43952.04089)
(-9437.811409 0 43065.86825)
(-10043.10793 5.721185244e-11 42162.5479)
(-10648.72069 1.100373382e-10 41238.8701)
(-11259.83398 1.062584655e-10 40299.25051)
(-11873.79828 0 39348.84987)
(-12495.30034 0 38387.41386)
(-13128.72056 4.882439961e-11 37416.45937)
(-13773.81456 -4.773582906e-11 36436.61839)
(-14432.09191 -4.678152232e-11 35448.3054)
(-15105.23488 0 34450.96298)
(-15794.23974 0 33444.28019)
(-16500.03772 -4.456726746e-11 32427.35486)
(-17224.54966 -8.80109905e-11 31400.29471)
(-17968.92034 0 30363.3574)
(-18734.41614 0 29318.32363)
(-19519.61017 0 28266.56723)
(-20329.1391 0 27210.88825)
(-21167.12933 0 26160.4906)
(-22032.36126 0 25117.54945)
(-22929.38698 2.088535455e-11 24091.92685)
(-23862.00305 0 23093.81402)
(-24832.46358 -2.076947998e-11 22134.77342)
(-25846.14866 0 21232.29059)
(-26905.39631 2.072153734e-11 20399.93019)
(-28008.73885 -2.072049558e-11 19656.60193)
(-29151.96731 0 19024.95807)
(-30320.9477 0 18528.33847)
(-31488.53968 1.039973499e-11 18192.06692)
(-32608.14069 0 18045.74722)
(-33605.44203 -1.045709171e-11 18117.60319)
(-34381.95128 0 18447.49469)
(-34834.39362 0 19109.22927)
(-34901.68646 0 20258.46608)
(-34813.75771 0 22289.72519)
(-35377.82505 2.673860396e-12 25953.29147)
(-36292.16431 2.689506299e-12 30900.32383)
(-29193.01143 2.8671152e-13 30680.06889)
(-1461.856581 0 45709.44481)
(436.8474941 0 45187.37804)
(-944.655042 0 45232.22015)
(-2881.953566 -3.577777604e-10 44750.53867)
(-2952.840626 0 44209.64899)
(-3665.580445 -2.406927548e-10 43586.32965)
(-4308.368909 0 42864.61079)
(-4925.255252 0 42075.98815)
(-5537.321326 0 41226.97225)
(-6143.489712 0 40330.54997)
(-6745.227267 -1.448611107e-10 39403.05762)
(-7344.301381 0 38449.33991)
(-7940.897778 0 37484.00887)
(-8537.931501 -6.121336414e-11 36512.86726)
(-9139.007115 -1.171768224e-10 35541.51644)
(-9740.298694 5.634245809e-11 34579.4959)
(-10347.15539 5.440756079e-11 33627.53037)
(-10961.63088 0 32687.80416)
(-11582.24437 1.025454509e-10 31766.06646)
(-12209.215 0 30860.44498)
(-12844.43683 4.888438769e-11 29971.26697)
(-13489.71786 0 29098.26237)
(-14144.93182 4.704983788e-11 28240.60336)
(-14809.8048 4.629803453e-11 27396.33738)
(-15484.49901 0 26564.92841)
(-16170.31543 0 25746.07937)
(-16869.52343 4.456352567e-11 24938.67926)
(-17583.47134 0 24143.81263)
(-18311.17413 0 23363.42873)
(-19056.52 0 22603.20359)
(-19823.12507 0 21867.2072)
(-20613.22437 0 21162.4944)
(-21428.28793 0 20499.28893)
(-22273.59446 0 19889.80354)
(-23156.05564 0 19350.17006)
(-24076.48825 0 18897.09209)
(-25039.1655 2.122011256e-11 18549.44658)
(-26049.39215 0 18330.96734)
(-27109.53427 0 18265.47067)
(-28218.15187 -1.062982798e-11 18376.00575)
(-29372.86026 1.064996019e-11 18681.27485)
(-30563.70478 0 19192.68877)
(-31772.62231 1.070869688e-11 19905.61013)
(-32977.49447 -1.074680098e-11 20799.49236)
(-34163.21794 5.395219829e-12 21837.36053)
(-35454.15249 0 23042.23875)
(-37359.47412 0 24647.52867)
(-39781.40607 -2.738195415e-12 26363.53199)
(-38848.71464 0 25083.25464)
(-29781.07758 2.863020418e-13 17116.20625)
(-1262.059838 0 41240.05251)
(560.6839699 0 40847.36755)
(-726.8565911 4.990723649e-10 40956.25942)
(-2507.627232 0 40544.90654)
(-2523.250772 -2.930795859e-10 40103.38759)
(-3144.557855 0 39592.13377)
(-3708.142571 2.145061919e-10 38998.76754)
(-4251.294482 0 38339.19252)
(-4793.883459 1.734089342e-10 37615.83821)
(-5337.357822 0 36846.20704)
(-5880.812159 7.419450689e-11 36031.31739)
(-6426.380294 -1.392924428e-10 35185.0645)
(-6977.260317 6.587315326e-11 34308.55919)
(-7531.525193 0 33416.59467)
(-8093.348262 0 32507.93858)
(-8663.30921 0 31590.94896)
(-9239.343854 5.573258614e-11 30672.26521)
(-9824.961018 5.401553202e-11 29754.03663)
(-10421.64556 0 28839.88315)
(-11028.13112 0 27932.07597)
(-11644.99865 0 27035.17334)
(-12273.06369 0 26151.19634)
(-12912.81597 0 25282.01769)
(-13565.40391 0 24429.04344)
(-14232.79277 4.675108092e-11 23597.55579)
(-14915.28447 4.616178187e-11 22791.42215)
(-15615.3149 4.564881211e-11 22016.40882)
(-16338.85817 4.520462598e-11 21277.10475)
(-17088.69688 0 20584.29597)
(-17870.13858 0 19949.05647)
(-18690.12346 0 19385.0282)
(-19556.39104 0 18906.46446)
(-20479.2718 2.190874511e-11 18534.12386)
(-21468.25764 2.183845888e-11 18292.7305)
(-22535.33048 0 18205.74516)
(-23693.05874 0 18301.60923)
(-24952.93335 0 18612.85916)
(-26324.04965 0 19170.7124)
(-27808.96601 -2.174956532e-11 20002.89629)
(-29392.84275 -1.088870357e-11 21125.43193)
(-31040.93494 0 22535.93477)
(-32686.02323 -1.093634624e-11 24192.8298)
(-34215.74011 0 25996.79858)
(-35477.28164 1.100852534e-11 27768.90893)
(-36304.81417 0 29243.83777)
(-36591.49292 0 30090.92064)
(-36226.92217 0 29799.52867)
(-34571.69592 2.80488059e-12 27228.80929)
(-30193.04896 0 21037.02427)
(-22492.93638 3.147527997e-13 12467.76307)
(-1140.171044 0 37435.44428)
(626.2433456 8.292852662e-10 37169.16969)
(-565.1654091 0 37286.29137)
(-2218.834901 0 36958.58971)
(-2193.314798 -3.00305137e-10 36603.45913)
(-2746.314782 0 36195.84319)
(-3250.759878 0 35726.99061)
(-3734.711271 2.937871874e-10 35201.67928)
(-4224.377645 1.776841391e-10 34627.86823)
(-4718.425458 0 34018.49264)
(-5216.97495 0 33371.85751)
(-5720.977959 0 32702.94432)
(-6233.38546 -6.749718238e-11 32011.39866)
(-6754.538795 -6.425003658e-11 31305.35413)
(-7283.125627 0 30590.75164)
(-7823.581686 0 29868.84935)
(-8375.523562 0 29144.84201)
(-8937.825084 0 28423.82377)
(-9510.280327 0 27706.15731)
(-10094.62758 -5.247950782e-11 26994.95235)
(-10692.23857 0 26292.71077)
(-11302.55416 0 25601.76031)
(-11924.76412 0 24923.43284)
(-12561.86028 0 24261.88725)
(-13217.12409 -4.79036769e-11 23620.17211)
(-13892.65217 -4.729984937e-11 23001.15988)
(-14589.46735 4.677423285e-11 22412.3889)
(-15314.91244 0 21860.53533)
(-16076.03749 -4.592780975e-11 21353.64336)
(-16879.14322 0 20902.77371)
(-17731.29894 0 20518.86957)
(-18642.74232 0 20214.8976)
(-19628.36574 0 20007.87481)
(-20697.66695 0 19913.8407)
(-21862.81188 0 19949.60363)
(-23139.05735 0 20134.94587)
(-24539.51501 0 20488.91924)
(-26072.39768 0 21028.02784)
(-27739.33165 -1.114288833e-11 21766.61395)
(-29527.40038 0 22707.21075)
(-31394.79586 0 23834.3645)
(-33252.66223 0 25089.19877)
(-34946.65391 0 26349.64805)
(-36241.51987 0 27396.47637)
(-36832.90921 0 27903.68308)
(-36375.45558 5.688573389e-12 27450.02603)
(-34494.643 0 25535.1585)
(-30888.98101 -2.874031797e-12 21754.61401)
(-25615.05713 2.890849018e-12 16356.02253)
(-19235.53705 3.372076362e-13 10579.51732)
(-1065.36914 0 33966.65292)
(667.2228272 0 33765.7862)
(-424.2199608 0 33875.53344)
(-1966.737649 -3.849001282e-10 33596.73149)
(-1904.009923 0 33288.53104)
(-2397.087055 0 32940.19917)
(-2848.012479 -1.126405112e-10 32536.79578)
(-3281.187023 1.003735258e-10 32082.43797)
(-3725.270938 0 31591.99421)
(-4175.536284 8.376778187e-11 31066.54618)
(-4634.119484 0 30515.07635)
(-5103.331204 7.314461113e-11 29940.65603)
(-5581.757202 0 29353.28126)
(-6073.719718 0 28751.39144)
(-6576.883358 0 28144.38575)
(-7091.430205 0 27535.65403)
(-7620.129994 -5.853208169e-11 26927.83977)
(-8162.352999 0 26323.48612)
(-8717.387284 5.51596013e-11 25725.65578)
(-9285.60491 0 25138.31528)
(-9867.640835 0 24563.13794)
(-10464.00927 0 24001.53316)
(-11076.23115 0 23456.35921)
(-11705.93354 0 22933.06505)
(-12354.06767 0 22433.44683)
(-13027.02168 -4.848052777e-11 21962.6005)
(-13729.58024 2.397089565e-11 21525.39621)
(-14466.17804 0 21132.08616)
(-15245.29517 -4.707423994e-11 20787.33942)
(-16076.06561 2.336638909e-11 20503.20733)
(-16966.4124 0 20287.61009)
(-17928.03599 0 20155.2565)
(-18976.11315 0 20118.50851)
(-20122.03447 -2.293542348e-11 20190.29838)
(-21380.31974 0 20386.64534)
(-22766.84939 -2.284641274e-11 20725.00921)
(-24294.15327 0 21221.3727)
(-25973.87262 -1.141380806e-11 21893.28342)
(-27805.19663 2.284206468e-11 22750.18958)
(-29763.7889 0 23786.41459)
(-31783.99819 -1.145731084e-11 24962.00273)
(-33729.34703 0 26175.26993)
(-35362.55962 0 27223.70695)
(-36338.81418 5.78074655e-12 27784.08776)
(-36263.77832 0 27450.79755)
(-34804.62331 5.83056913e-12 25852.8284)
(-31828.37703 0 22836.05421)
(-27527.98397 0 18650.20144)
(-22433.07485 0 13966.18463)
(-17140.10109 0 9559.96364)
(-1007.928231 0 30891.27749)
(697.3552664 4.357353219e-10 30719.04505)
(-302.2292069 2.68694967e-10 30827.75413)
(-1747.717563 0 30590.94346)
(-1654.160204 -1.577907634e-10 30331.74738)
(-2094.54999 0 30040.7984)
(-2496.720892 2.309754585e-10 29700.15238)
(-2886.599008 0 29318.10047)
(-3289.610652 9.336142651e-11 28907.30631)
(-3702.630785 -8.588518305e-11 28464.52923)
(-4126.56644 -7.989098202e-11 28004.62443)
(-4564.641253 -7.49934898e-11 27524.0479)
(-5015.188507 -7.093073427e-11 27033.48553)
(-5479.241432 0 26535.99206)
(-5960.558657 0 26033.02824)
(-6457.041483 0 25531.79557)
(-6967.855134 0 25034.87838)
(-7493.249031 0 24544.12008)
(-8034.520263 0 24062.88516)
(-8591.968701 0 23593.69892)
(-9164.587708 0 23138.90801)
(-9752.849362 0 22700.381)
(-10360.01092 0 22282.15821)
(-10988.34894 0 21885.50747)
(-11639.25883 0 21514.78594)
(-12316.69936 0 21176.19483)
(-13028.46586 0 20871.50124)
(-13780.15344 0 20609.90884)
(-14579.26058 0 20396.07075)
(-15436.0745 0 20238.87347)
(-16360.01811 2.380992696e-11 20145.80361)
(-17363.13673 0 20128.6409)
(-18458.56112 0 20196.85309)
(-19660.86176 0 20361.66263)
(-20985.86687 0 20638.3802)
(-22450.48313 0 21042.27767)
(-24071.32234 2.340580753e-11 21590.78263)
(-25857.26274 0 22298.4751)
(-27803.31435 1.170972215e-11 23169.5267)
(-29873.82418 0 24189.86521)
(-31971.83334 0 25294.37567)
(-33899.59671 0 26336.3558)
(-35332.39903 0 27048.55304)
(-35848.44779 -5.926866636e-12 27059.31682)
(-35055.57063 0 26001.26008)
(-32782.52497 0 23697.58607)
(-29199.78749 6.007820052e-12 20310.13972)
(-24776.67574 0 16320.221)
(-20099.87571 -3.037905234e-12 12329.46011)
(-15613.49287 1.899593202e-12 8788.428011)
(-960.3420477 0 28156.27651)
(718.7366564 0 28002.59775)
(-199.3688382 0 28112.46715)
(-1563.504632 0 27917.297)
(-1446.082499 1.618302971e-10 27705.85471)
(-1839.021995 -1.361404619e-10 27468.75226)
(-2200.86015 0 27188.67557)
(-2555.025004 0 26879.70725)
(-2922.601957 0 26543.97151)
(-3303.943593 0 26187.17871)
(-3699.313495 0 25813.54835)
(-4109.305275 7.691336594e-11 25429.41666)
(-4538.242381 0 25034.71698)
(-4981.826776 0 24638.36156)
(-5442.438211 6.627746941e-11 24241.70818)
(-5922.356393 0 23847.92334)
(-6419.412048 -6.154793015e-11 23458.59615)
(-6933.456028 0 23078.03803)
(-7464.546359 0 22708.50012)
(-8012.947841 0 22351.57125)
(-8578.838246 -5.529990386e-11 22008.07314)
(-9163.407933 0 21680.96059)
(-9766.909695 -5.322459046e-11 21372.91008)
(-10392.1326 5.237412145e-11 21085.43073)
(-11044.97356 0 20820.89494)
(-11726.39442 -2.548923639e-11 20583.71721)
(-12444.11398 0 20378.3601)
(-13205.63289 0 20209.65222)
(-14017.0792 0 20082.06096)
(-14889.85424 0 20002.85986)
(-15834.43774 0 19979.99729)
(-16862.85402 2.429496466e-11 20022.38862)
(-17988.04814 -2.419478466e-11 20139.27665)
(-19227.17325 0 20343.69223)
(-20598.52203 0 20650.97525)
(-22120.4119 0 21077.68354)
(-23809.74705 1.200250477e-11 21641.50051)
(-25674.6636 0 22353.83918)
(-27705.79052 1.200949771e-11 23218.37356)
(-29846.13073 1.202487124e-11 24202.82413)
(-31957.64989 1.204764552e-11 25213.50086)
(-33778.58414 0 26053.63222)
(-34909.36683 0 26407.85187)
(-34908.75903 -6.078597787e-12 25907.37589)
(-33484.51088 0 24300.60852)
(-30673.25999 6.130987523e-12 21621.18832)
(-26854.00042 3.080811835e-12 18212.67108)
(-22576.44742 3.097552223e-12 14574.27637)
(-18348.93093 -1.557838673e-12 11156.84139)
(-14471.68602 -1.181870095e-12 8216.674814)
(-920.0604018 0 25712.23051)
(733.43739 0 25573.77004)
(-116.552799 2.827200254e-10 25687.41777)
(-1411.852446 0 25531.34719)
(-1274.800542 0 25360.77891)
(-1626.917614 -1.396709235e-10 25171.15077)
(-1956.608966 2.430316733e-10 24949.31029)
(-2280.598199 1.082822941e-10 24706.08852)
(-2620.115072 0 24439.62299)
(-2975.174244 0 24162.22172)
(-3347.75885 0 23869.27828)
(-3736.700286 7.890792151e-11 23572.08304)
(-4144.194372 0 23270.26624)
(-4572.73154 7.104266286e-11 22965.88502)
(-5020.247575 6.799620941e-11 22665.92581)
(-5485.725431 0 22370.28329)
(-5970.30564 0 22081.14555)
(-6474.662908 0 21800.84908)
(-6997.604026 -5.950581211e-11 21530.63396)
(-7538.076184 0 21271.80107)
(-8096.326464 0 21025.05331)
(-8674.921297 0 20792.79697)
(-9275.187471 0 20574.25295)
(-9896.969284 -5.373231312e-11 20373.07865)
(-10545.52099 0 20191.0112)
(-11226.25257 5.230047189e-11 20029.27413)
(-11944.76849 5.17192865e-11 19894.5641)
(-12706.97919 0 19788.1358)
(-13521.18951 2.539168904e-11 19715.43493)
(-14399.58312 -2.520750565e-11 19683.85572)
(-15352.82908 0 19701.01001)
(-16392.93319 2.492499369e-11 19774.81502)
(-17535.09684 0 19916.26142)
(-18798.40037 0 20140.60696)
(-20202.27654 0 20462.96111)
(-21767.54347 0 20901.83676)
(-23510.31001 0 21473.29341)
(-25437.96423 0 22189.23847)
(-27529.32973 1.2320934e-11 23043.84585)
(-29701.67428 1.233670615e-11 23984.6545)
(-31769.90458 0 24885.67898)
(-33407.96411 0 25505.34027)
(-34176.41894 -1.242823938e-11 25507.90837)
(-33674.78836 0 24578.88648)
(-31757.93464 -6.261553926e-12 22607.99984)
(-28642.48507 0 19784.76331)