/*--------------------------------*- C++ -*----------------------------------*\
  =========                 |
  \\      /  F ield         | OpenFOAM: The Open Source CFD Toolbox
   \\    /   O peration     | Website:  https://openfoam.org
    \\  /    A nd           | Version:  7
     \\/     M anipulation  |
\*---------------------------------------------------------------------------*/
FoamFile
{
    version     2.0;
    format      ascii;
    class       surfaceScalarField;
    location    "0.0021";
    object      phi;
}
// * * * * * * * * * * * * * * * * * * * * * * * * * * * * * * * * * * * * * //

dimensions      [1 0 -1 0 0 0 0];

internalField   nonuniform List<scalar> 
2259
(
-5.076878529e-13
4.898425782e-11
1.433117114e-10
-5.795965106e-13
4.956385433e-11
-2.272216801e-12
1.450043317e-10
-5.009286177e-12
2.350770482e-10
-8.718937163e-12
3.19956644e-10
-1.332831361e-11
3.998277545e-10
-1.876350877e-11
4.748680903e-10
-2.49495608e-11
5.452476714e-10
-3.181053992e-11
6.111307191e-10
-3.926968819e-11
6.726757909e-10
-4.724952594e-11
7.300361327e-10
-5.567181957e-11
7.833602592e-10
-6.445763238e-11
8.327923637e-10
-7.352764738e-11
8.784732439e-10
-8.280200137e-11
9.205406302e-10
-9.220054083e-11
9.591295338e-10
-1.016430467e-10
9.943730854e-10
-1.11049018e-10
1.026402246e-09
-1.203383129e-10
1.055346728e-09
-1.294306787e-10
1.081334535e-09
-1.382464974e-10
1.10449271e-09
-1.467063256e-10
1.124946906e-09
-1.547316144e-10
1.142821975e-09
-1.622443309e-10
1.158241524e-09
-1.691676787e-10
1.171328497e-09
-1.754258354e-10
1.182204709e-09
-1.809447263e-10
1.190991439e-09
-1.856519891e-10
1.197809073e-09
-1.894778139e-10
1.202777606e-09
-1.92355211e-10
1.206016461e-09
-1.942210131e-10
1.207644869e-09
-1.950165554e-10
1.207781874e-09
-1.946888428e-10
1.206546493e-09
-1.931916611e-10
1.20405768e-09
-1.904869278e-10
1.200434308e-09
-1.865460754e-10
1.195794889e-09
-1.813516286e-10
1.190257332e-09
-1.748983999e-10
1.183938054e-09
-1.671950415e-10
1.176951554e-09
-1.5826469e-10
1.169408943e-09
-1.48146073e-10
1.161417443e-09
-1.368932169e-10
1.15307858e-09
-1.245755347e-10
1.144487638e-09
-1.112765858e-10
1.135732238e-09
-9.709306074e-11
1.12689203e-09
-8.213275188e-11
1.11803788e-09
-6.65129882e-11
1.109232189e-09
-5.035829257e-11
1.100528753e-09
-3.379890718e-11
1.091973811e-09
-1.696799975e-11
1.083604805e-09
1.07545023e-09
-6.581153743e-13
5.02219697e-11
-2.580173017e-12
1.469263894e-10
-5.68842886e-12
2.38185304e-10
-9.901657504e-12
3.241698726e-10
-1.513772074e-11
4.050638178e-10
-2.131351415e-11
4.810438837e-10
-2.834497112e-11
5.522791284e-10
-3.614729662e-11
6.189330446e-10
-4.463510878e-11
6.811636031e-10
-5.372252516e-11
7.39123549e-10
-6.332307372e-11
7.929608078e-10
-7.335000111e-11
8.428192911e-10
-8.371630258e-11
8.888395454e-10
-9.433459178e-11
9.311589194e-10
-1.051175731e-10
9.699125151e-10
-1.15977701e-10
1.005233213e-09
-1.268275618e-10
1.037252107e-09
-1.375797143e-10
1.06609888e-09
-1.481468404e-10
1.091901661e-09
-1.584417267e-10
1.114787596e-09
-1.683772701e-10
1.134882449e-09
-1.778665078e-10
1.152311213e-09
-1.868226275e-10
1.167197643e-09
-1.951589162e-10
1.179664786e-09
-2.027889705e-10
1.189834763e-09
-2.096266272e-10
1.197829096e-09
-2.155863364e-10
1.203768782e-09
-2.205832719e-10
1.207774542e-09
-2.245338913e-10
1.20996708e-09
-2.27356503e-10
1.21046748e-09
-2.289721073e-10
1.209397479e-09
-2.293054466e-10
1.206879833e-09
-2.28286454e-10
1.203038688e-09
-2.258517153e-10
1.197999569e-09
-2.219468288e-10
1.191890002e-09
-2.165281476e-10
1.184838651e-09
-2.095656218e-10
1.176975528e-09
-2.010450559e-10
1.168430988e-09
-1.909705833e-10
1.159334471e-09
-1.7936697e-10
1.14981383e-09
-1.662808959e-10
1.139992505e-09
-1.517821856e-10
1.129988928e-09
-1.359634187e-10
1.119913471e-09
-1.189391267e-10
1.109867738e-09
-1.008435215e-10
1.099942275e-09
-8.182784632e-11
1.090216514e-09
-6.205717193e-11
1.080758078e-09
-4.170706942e-11
1.071623709e-09
-2.095970023e-11
1.062857436e-09
1.05449053e-09
-7.431393812e-13
5.096510909e-11
-2.913641221e-12
1.490968912e-10
-6.423774608e-12
2.416954374e-10
-1.118213569e-11
3.289282337e-10
-1.709650984e-11
4.109781919e-10
-2.407378281e-11
4.880211566e-10
-3.202009137e-11
5.60225437e-10
-4.084113906e-11
6.277540922e-10
-5.044235488e-11
6.907648189e-10
-6.07288964e-11
7.494100906e-10
-7.160583006e-11
8.038377414e-10
-8.297835002e-11
8.541918111e-10
-9.475157936e-11
9.006127747e-10
-1.068308789e-10
9.432382189e-10
-1.191218275e-10
9.822034638e-10
-1.315300954e-10
1.017641481e-09
-1.43961776e-10
1.049683787e-09
-1.563228991e-10
1.078460003e-09
-1.685198879e-10
1.10409865e-09
-1.804589362e-10
1.126726644e-09
-1.920463776e-10
1.146469891e-09
-2.031880835e-10
1.163452919e-09
-2.137896422e-10
1.177799202e-09
-2.237558649e-10
1.189631009e-09
-2.329907832e-10
1.199069681e-09
-2.413974348e-10
1.206235748e-09
-2.488776659e-10
1.211249013e-09
-2.553321018e-10
1.214228978e-09
-2.606602932e-10
1.215295271e-09
-2.64760858e-10
1.214568045e-09
-2.675320409e-10
1.212168662e-09
-2.688726135e-10
1.208220405e-09
-2.686827512e-10
1.202848825e-09
-2.668661947e-10
1.196183013e-09
-2.633321317e-10
1.188355939e-09
-2.579980836e-10
1.179504603e-09
-2.507935755e-10
1.16977102e-09
-2.416639086e-10
1.159301321e-09
-2.305748492e-10
1.148245411e-09
-2.175171338e-10
1.136756115e-09
-2.025111667e-10
1.124986538e-09
-1.856105773e-10
1.113088338e-09
-1.669052676e-10
1.101208161e-09
-1.465217729e-10
1.089484243e-09
-1.246223323e-10
1.078042835e-09
-1.014012019e-10
1.066995383e-09
-7.707993342e-11
1.05643681e-09
-5.190090135e-11
1.046444677e-09
-2.61200734e-11
1.037076608e-09
1.028370457e-09
-8.344305324e-13
5.179953962e-11
-3.271679679e-12
1.515341404e-10
-7.213204443e-12
2.456369622e-10
-1.255658294e-11
3.342716122e-10
-1.919867212e-11
4.176202811e-10
-2.703554466e-11
4.958580292e-10
-3.59627965e-11
5.691526888e-10
-4.58759151e-11
6.376672108e-10
-5.667046242e-11
7.015593663e-10
-6.824218449e-11
7.609818126e-10
-8.048736732e-11
8.160829242e-10
-9.330278417e-11
8.670072279e-10
-1.065857226e-10
9.138957131e-10
-1.202343488e-10
9.568868451e-10
-1.341473046e-10
9.961164197e-10
-1.482241137e-10
1.03171829e-09
-1.623647781e-10
1.063824452e-09
-1.764699827e-10
1.092565208e-09
-1.904406454e-10
1.118069313e-09
-2.041780078e-10
1.140464007e-09
-2.17583086e-10
1.159874969e-09
-2.305566024e-10
1.176426435e-09
-2.429983508e-10
1.19024095e-09
-2.548069457e-10
1.201439604e-09
-2.658792219e-10
1.210141957e-09
-2.761097616e-10
1.216466287e-09
-2.853902478e-10
1.220529499e-09
-2.936091105e-10
1.22244784e-09
-3.006508189e-10
1.22233698e-09
-3.063955784e-10
1.220312805e-09
-3.107193345e-10
1.216492418e-09
-3.134934728e-10
1.210994544e-09
-3.14585544e-10
1.203940897e-09
-3.138603205e-10
1.195457789e-09
-3.111813781e-10
1.185676997e-09
-3.0641404e-10
1.174737265e-09
-2.994289916e-10
1.162785971e-09
-2.901076636e-10
1.149979993e-09
-2.783487505e-10
1.136486498e-09
-2.640760176e-10
1.122483382e-09
-2.472476234e-10
1.108158144e-09
-2.278655857e-10
1.093706301e-09
-2.059849684e-10
1.079327544e-09
-1.817208599e-10
1.065220135e-09
-1.552523e-10
1.051574275e-09
-1.268208233e-10
1.038563907e-09
-9.672420811e-11
1.026340195e-09
-6.530494004e-11
1.015025409e-09
-3.293459905e-11
1.004706267e-09
9.954358577e-10
-9.316104671e-13
5.273115008e-11
-3.652790721e-12
1.542553206e-10
-8.053371021e-12
2.500375425e-10
-1.401903885e-11
3.402372801e-10
-2.143486961e-11
4.250361119e-10
-3.018528389e-11
5.046084434e-10
-4.015448079e-11
5.791218857e-10
-5.122694892e-11
6.487396789e-10
-6.328767207e-11
7.136200895e-10
-7.622251379e-11
7.739166544e-10
-8.991846249e-11
8.297788729e-10
-1.0426353e-10
8.813522954e-10
-1.191471955e-10
9.287793787e-10
-1.344602297e-10
9.721998792e-10
-1.500948073e-10
1.011750997e-09
-1.659445236e-10
1.047568007e-09
-1.819041707e-10
1.079784099e-09
-1.97869772e-10
1.108530809e-09
-2.13738178e-10
1.133937718e-09
-2.29406884e-10
1.156132713e-09
-2.447736397e-10
1.175241724e-09
-2.597359145e-10
1.19138871e-09
-2.74190401e-10
1.204695437e-09
-2.88032327e-10
1.21528153e-09
-3.011546854e-10
1.223264316e-09
-3.134472528e-10
1.228758855e-09
-3.247958484e-10
1.231878095e-09
-3.350809643e-10
1.232732956e-09
-3.441766541e-10
1.23143267e-09
-3.51949551e-10
1.228085701e-09
-3.58257368e-10
1.222800235e-09
-3.62947832e-10
1.215685007e-09
-3.658578604e-10
1.206850925e-09
-3.668128461e-10
1.196412775e-09
-3.656269636e-10
1.184491114e-09
-3.621041874e-10
1.171214489e-09
-3.560406797e-10
1.156722464e-09
-3.472293823e-10
1.141168696e-09
-3.354670208e-10
1.124724137e-09
-3.205641208e-10
1.107580482e-09
-3.023590579e-10
1.089953081e-09
-2.807356237e-10
1.072082866e-09
-2.55643461e-10
1.054235381e-09
-2.271200595e-10
1.036696733e-09
-1.953099896e-10
1.019764205e-09
-1.604775892e-10
1.003731506e-09
-1.230081472e-10
9.888707525e-10
-8.33914309e-11
9.754086924e-10
-4.218805449e-11
9.635028903e-10
9.532478032e-10
-1.034163086e-12
5.376531317e-11
-4.054934115e-12
1.572760916e-10
-8.939758076e-12
2.549223665e-10
-1.556152875e-11
3.468590507e-10
-2.37926718e-11
4.332672549e-10
-3.350501157e-11
5.143207832e-10
-4.457046363e-11
5.901873378e-10
-5.686160961e-11
6.610308249e-10
-7.025218104e-11
7.270106609e-10
-8.461750526e-11
7.882819786e-10
-9.983458886e-11
8.449959565e-10
-1.15782432e-10
8.973001386e-10
-1.323423295e-10
9.453392762e-10
-1.493975977e-10
9.892551474e-10
-1.66834092e-10
1.029187491e-09
-1.845396767e-10
1.065273592e-09
-2.024045792e-10
1.097649001e-09
-2.203208283e-10
1.126447058e-09
-2.381823255e-10
1.151799216e-09
-2.558842187e-10
1.173834606e-09
-2.733226283e-10
1.192680134e-09
-2.903940217e-10
1.208460104e-09
-3.069945726e-10
1.221295988e-09
-3.230192931e-10
1.23130625e-09
-3.383610663e-10
1.238606089e-09
-3.529096094e-10
1.243307398e-09
-3.665499349e-10
1.245518421e-09
-3.791608716e-10
1.245343893e-09
-3.906133507e-10
1.242885149e-09
-4.007683077e-10
1.238240658e-09
-4.094742003e-10
1.231506127e-09
-4.16564602e-10
1.222775409e-09
-4.218553672e-10
1.212141691e-09
-4.251416237e-10
1.199699031e-09
-4.261950308e-10
1.185544521e-09
-4.24761347e-10
1.169780805e-09
-4.205588398e-10
1.152519957e-09
-4.132783744e-10
1.13388823e-09
-4.025865139e-10
1.114032277e-09
-3.881327844e-10
1.093126752e-09
-3.695633359e-10
1.071383633e-09
-3.465429286e-10
1.049062459e-09
-3.18787501e-10
1.026479953e-09
-2.861078329e-10
1.004017065e-09
-2.484628515e-10
9.821192236e-10
-2.060170687e-10
9.612857235e-10
-1.591857148e-10
9.420393986e-10
-1.086393779e-10
9.248623555e-10
-5.524886457e-11
9.101123769e-10
8.979989386e-10
-1.141426028e-12
5.49067392e-11
-4.475549018e-12
1.606102146e-10
-9.866792247e-12
2.603136097e-10
-1.717427511e-11
3.541665336e-10
-2.625685151e-11
4.423498313e-10
-3.697279629e-11
5.25036728e-10
-4.918074267e-11
6.023952842e-10
-6.274050142e-11
6.745905836e-10
-7.751373292e-11
7.417838925e-10
-9.336434156e-11
8.041325872e-10
-1.101587163e-10
8.617903312e-10
-1.277663519e-10
9.149077743e-10
-1.460597134e-10
9.636326376e-10
-1.649146342e-10
1.008110068e-09
-1.842102012e-10
1.048483059e-09
-2.038288828e-10
1.084892273e-09
-2.236562555e-10
1.117476374e-09
-2.435810564e-10
1.146371859e-09
-2.634947043e-10
1.171712863e-09
-2.832910586e-10
1.19363096e-09
-3.028658899e-10
1.212254965e-09
-3.221163443e-10
1.227710558e-09
-3.409401638e-10
1.240119807e-09
-3.592349232e-10
1.24960101e-09
-3.768969351e-10
1.256268101e-09
-3.938199057e-10
1.260230369e-09
-4.098935026e-10
1.261592018e-09
-4.250016204e-10
1.26045201e-09
-4.390201672e-10
1.256903695e-09
-4.518143353e-10
1.251034826e-09
-4.632355815e-10
1.242927373e-09
-4.731178705e-10
1.232657698e-09
-4.812730857e-10
1.220296906e-09
-4.874857528e-10
1.205911699e-09
-4.915066578e-10
1.189565426e-09
-4.930457966e-10
1.171319944e-09
-4.917644467e-10
1.151238607e-09
-4.872668841e-10
1.129390667e-09
-4.790929754e-10
1.105858368e-09
-4.667128932e-10
1.08074667e-09
-4.495272249e-10
1.054197964e-09
-4.268771077e-10
1.026412342e-09
-3.980718972e-10
9.976747427e-10
-3.624438665e-10
9.683890344e-10
-3.194407435e-10
9.391161008e-10
-2.687609394e-10
9.106059194e-10
-2.105164267e-10
8.837948859e-10
-1.453738442e-10
8.59719773e-10
-7.461156639e-11
8.393500991e-10
8.233873722e-10
-1.252655701e-12
5.61593949e-11
-4.911720202e-12
1.642692791e-10
-1.082816953e-11
2.66230059e-10
-1.884620052e-11
3.621845646e-10
-2.881016878e-11
4.523137996e-10
-4.056381488e-11
5.367903741e-10
-5.395147648e-11
6.157829458e-10
-6.881925732e-11
6.894583644e-10
-8.501572327e-11
7.579803584e-10
-1.023923415e-10
8.215092054e-10
-1.208041966e-10
8.802021863e-10
-1.401103058e-10
9.342138834e-10
-1.601737717e-10
9.836961036e-10
-1.808622371e-10
1.028798533e-09
-2.020476713e-10
1.069668493e-09
-2.236066758e-10
1.106451278e-09
-2.454201529e-10
1.139289851e-09
-2.673732762e-10
1.168324983e-09
-2.893552227e-10
1.19369481e-09
-3.112587677e-10
1.215534505e-09
-3.32979878e-10
1.233976076e-09
-3.544170405e-10
1.24914772e-09
-3.754708254e-10
1.261173592e-09
-3.960428153e-10
1.270173e-09
-4.160346547e-10
1.27625994e-09
-4.353469193e-10
1.279542633e-09
-4.538777011e-10
1.2801228e-09
-4.715207953e-10
1.278095105e-09
-4.881635531e-10
1.273546453e-09
-5.036841942e-10
1.266555468e-09
-5.179486143e-10
1.257191793e-09
-5.308061327e-10
1.245515217e-09
-5.420842189e-10
1.231574992e-09
-5.51581936e-10
1.215409416e-09
-5.590612646e-10
1.197044754e-09
-5.642361876e-10
1.176494867e-09
-5.667589715e-10
1.153761391e-09
-5.662025766e-10
1.128834272e-09
-5.620391913e-10
1.101694983e-09
-5.536145004e-10
1.072321979e-09
-5.401192521e-10
1.040702716e-09
-5.205613597e-10
1.00685445e-09
-4.93747037e-10
9.7086042e-10
-4.582849814e-10
9.329269788e-10
-4.126368545e-10
8.934679739e-10
-3.552545725e-10
8.532236374e-10
-2.848746808e-10
8.134149942e-10
-2.010454663e-10
7.758905585e-10
-1.048790544e-10
7.431836872e-10
7.185083179e-10
-1.367035707e-12
5.752643061e-11
-5.360146133e-12
1.682623896e-10
-1.181678106e-11
2.72686694e-10
-2.056459049e-11
3.70932374e-10
-3.143255956e-11
4.631817687e-10
-4.42488351e-11
5.496066496e-10
-5.884234295e-11
6.303764536e-10
-7.504427398e-11
7.056602954e-10
-9.268882313e-11
7.756249076e-10
-1.116139821e-10
8.404343643e-10
-1.316623985e-10
9.002506027e-10
-1.526815002e-10
9.552329851e-10
-1.745242416e-10
1.005538845e-09
-1.970489843e-10
1.051323276e-09
-2.201199762e-10
1.092739485e-09
-2.436070673e-10
1.129938369e-09
-2.673858775e-10
1.163068661e-09
-2.913374463e-10
1.192276551e-09
-3.153481165e-10
1.21770548e-09
-3.393090711e-10
1.23949546e-09
-3.631159674e-10
1.257782972e-09
-3.866684426e-10
1.272700196e-09
-4.09869334e-10
1.284374484e-09
-4.326239763e-10
1.292927642e-09
-4.548394003e-10
1.298475364e-09
-4.764232771e-10
1.30112651e-09
-4.972826326e-10
1.300982155e-09
-5.173223566e-10
1.298134829e-09
-5.364434296e-10
1.292667526e-09
-5.545407103e-10
1.284652748e-09
-5.715002131e-10
1.274151296e-09
-5.87195408e-10
1.261210412e-09
-6.014827245e-10
1.245862309e-09
-6.14195587e-10
1.228122278e-09
-6.25136091e-10
1.207985258e-09
-6.340643406e-10
1.185423117e-09
-6.406830165e-10
1.160380067e-09
-6.446165047e-10
1.13276776e-09
-6.453813868e-10
1.102459865e-09
-6.423451451e-10
1.069285737e-09
-6.346681292e-10
1.0330257e-09
-6.212227936e-10
9.93409114e-10
-6.004827686e-10
9.501203949e-10
-5.703765066e-10
9.028207169e-10
-5.281134498e-10
8.512049172e-10
-4.700424959e-10
7.951526834e-10
-3.917147958e-10
7.350872942e-10
-2.884832652e-10
6.726590279e-10
-1.573076826e-10
6.120081046e-10
5.612006352e-10
-1.48312206e-12
5.900955267e-11
-5.816807273e-12
1.725960748e-10
-1.282360553e-11
2.796934922e-10
-2.231341383e-11
3.804221823e-10
-3.409901475e-11
4.749673696e-10
-4.799188641e-11
5.634995213e-10
-6.380433938e-11
6.461889066e-10
-8.135139442e-11
7.232073504e-10
-1.004517119e-10
7.947252252e-10
-1.209288296e-10
8.60911482e-10
-1.426117129e-10
9.21933486e-10
-1.653354443e-10
9.779567165e-10
-1.889416838e-10
1.029145084e-09
-2.132789083e-10
1.075660501e-09
-2.382025023e-10
1.117663079e-09
-2.635749232e-10
1.15531079e-09
-2.892654693e-10
1.188759207e-09
-3.151501066e-10
1.218161189e-09
-3.411111846e-10
1.243666558e-09
-3.67037074e-10
1.265421349e-09
-3.928216522e-10
1.28356755e-09
-4.183637323e-10
1.298242276e-09
-4.435663835e-10
1.309577135e-09
-4.68336318e-10
1.317697576e-09
-4.92582977e-10
1.322722023e-09
-5.162175817e-10
1.324761115e-09
-5.391520208e-10
1.323916595e-09
-5.612976053e-10
1.320280413e-09
-5.825635225e-10
1.313933443e-09
-6.028552626e-10
1.304944488e-09
-6.220720473e-10
1.293368081e-09
-6.401044042e-10
1.279242768e-09
-6.568307149e-10
1.26258862e-09
-6.721125197e-10
1.243404083e-09
-6.857886079e-10
1.221661346e-09
-6.976668095e-10
1.197301319e-09
-7.075120937e-10
1.170225351e-09
-7.15029979e-10
1.140285645e-09
-7.19841231e-10
1.107271117e-09
-7.214437854e-10
1.070888292e-09
-7.19153441e-10
1.030735356e-09
-7.120103866e-10
9.862660596e-10
-6.986303388e-10
9.36740347e-10
-6.769694495e-10
8.811598275e-10
-6.439568005e-10
8.181922684e-10
-5.949119793e-10
7.461078622e-10
-5.225651624e-10
6.627404773e-10
-4.15245791e-10
5.653396565e-10
-2.527218197e-10
4.494841332e-10
3.084788155e-10
-7.454203208e-14
5.90840947e-11
-2.945234374e-13
1.728160561e-10
-6.340626204e-13
2.800330314e-10
-1.068071467e-12
3.808561912e-10
-1.564026261e-12
4.754633243e-10
-2.088150876e-12
5.640236459e-10
-2.605993892e-12
6.467067497e-10
-3.083592191e-12
7.236849486e-10
-3.488851884e-12
7.951304847e-10
-3.792591715e-12
8.612152219e-10
-3.968960807e-12
9.221098552e-10
-3.99637367e-12
9.779841294e-10
-3.857437179e-12
1.029006148e-09
-3.539608612e-12
1.075342672e-09
-3.034792386e-12
1.117158262e-09
-2.339642003e-12
1.15461564e-09
-1.455326372e-12
1.187874892e-09
-3.872782584e-13
1.217093141e-09
8.549682268e-13
1.242424311e-09
2.257995973e-12
1.264018321e-09
3.804772325e-12
1.282020774e-09
5.474899145e-12
1.296572148e-09
7.244757395e-12
1.307807276e-09
9.087765059e-12
1.315854569e-09
1.097437683e-11
1.320835411e-09
1.287228914e-11
1.322863202e-09
1.474627871e-11
1.322042605e-09
1.655820175e-11
1.31846849e-09
1.826692078e-11
1.312224724e-09
1.982783833e-11
1.30338357e-09
2.119277162e-11
1.292003147e-09
2.230901351e-11
1.278126526e-09
2.311878752e-11
1.261778846e-09
2.355803679e-11
1.242964834e-09
2.355481681e-11
1.221664566e-09
2.302731465e-11
1.197828821e-09
2.188037872e-11
1.171372287e-09
2.000167498e-11
1.142164349e-09
1.725639715e-11
1.110016394e-09
1.348075021e-11
1.074663938e-09
8.475280233e-12
1.035740825e-09
2.000908392e-12
9.927404312e-10
-6.216339228e-12
9.449575946e-10
-1.645454083e-11
8.913980291e-10
-2.889376162e-11
8.306314891e-10
-4.332045299e-11
7.605345535e-10
-5.8375732e-11
6.777957564e-10
-6.980392248e-11
5.767678471e-10
-6.581887002e-11
4.454990808e-10
2.426599455e-10
-1.439359868e-13
5.922803068e-11
-5.6383586e-13
1.73235956e-10
-1.226311513e-12
2.80695507e-10
-2.096772936e-12
3.817266526e-10
-3.133754188e-12
4.765003058e-10
-4.293985957e-12
5.651838778e-10
-5.533615213e-12
6.479463788e-10
-6.809491724e-12
7.249608251e-10
-8.080686153e-12
7.964016791e-10
-9.309296191e-12
8.624438319e-10
-1.046132267e-11
9.232618816e-10
-1.150726175e-11
9.790300683e-10
-1.242242293e-11
1.029921309e-09
-1.318710285e-11
1.076107352e-09
-1.378680851e-11
1.117757968e-09
-1.421189955e-11
1.155040731e-09
-1.445761017e-11
1.188120603e-09
-1.452388346e-11
1.217159414e-09
-1.441481073e-11
1.242315238e-09
-1.413861596e-11
1.263742126e-09
-1.37071282e-11
1.281589286e-09
-1.313556005e-11
1.29600058e-09
-1.244218627e-11
1.307113902e-09
-1.164816106e-11
1.315060543e-09
-1.077713085e-11
1.319964381e-09
-9.855121242e-12
1.321941193e-09
-8.910478468e-12
1.321097962e-09
-7.973773779e-12
1.317531786e-09
-7.077728292e-12
1.311328679e-09
-6.257159471e-12
1.302563002e-09
-5.549168898e-12
1.291295157e-09
-4.993348746e-12
1.277570706e-09
-4.631641642e-12
1.261417138e-09
-4.508575811e-12
1.242841768e-09
-4.67136268e-12
1.221827353e-09
-5.169808299e-12
1.198327267e-09
-6.056134556e-12
1.172258613e-09
-7.384401752e-12
1.143492616e-09
-9.209611324e-12
1.111841604e-09
-1.158579033e-11
1.077040118e-09
-1.456313786e-11
1.038718173e-09
-1.818214795e-11
9.963594414e-10
-2.246217702e-11
9.492376236e-10
-2.737481324e-11
8.963106653e-10
-3.278028581e-11
8.360369618e-10
-3.827465016e-11
7.660289179e-10
-4.27898762e-11
6.823109823e-10
-4.338972082e-11
5.773676916e-10
-3.203577273e-11
4.341451327e-10
2.106241728e-10
-2.103977916e-13
5.943842848e-11
-8.227115663e-13
1.738482698e-10
-1.796301699e-12
2.816690972e-10
-3.086688051e-12
3.83017039e-10
-4.643489512e-12
4.780571072e-10
-6.41409649e-12
5.669544848e-10
-8.345214141e-12
6.498774965e-10
-1.038451969e-11
7.270001308e-10
-1.24821052e-11
7.98499265e-10
-1.459130477e-11
8.645530317e-10
-1.666988381e-11
9.253404607e-10
-1.86802747e-11
9.810404592e-10
-2.059035143e-11
1.031831386e-09
-2.237322781e-11
1.077890228e-09
-2.400761905e-11
1.119392359e-09
-2.547760786e-11
1.156510719e-09
-2.677233543e-11
1.18941533e-09
-2.788585107e-11
1.218272929e-09
-2.881675573e-11
1.243246143e-09
-2.956781751e-11
1.264493188e-09
-3.014550306e-11
1.282166972e-09
-3.0559697e-11
1.296414775e-09
-3.082327649e-11
1.307377482e-09
-3.095186509e-11
1.315189132e-09
-3.096343015e-11
1.319975946e-09
-3.087814128e-11
1.321855904e-09
-3.071802602e-11
1.320937847e-09
-3.050713304e-11
1.317320893e-09
-3.027120961e-11
1.311092755e-09
-3.003773876e-11
1.302329531e-09
-2.98360027e-11
1.291093421e-09
-2.969724558e-11
1.277431949e-09
-2.965474627e-11
1.261374639e-09
-2.974369712e-11
1.242930719e-09
-3.000158905e-11
1.222085245e-09
-3.046800181e-11
1.198793679e-09
-3.118396353e-11
1.172974575e-09
-3.219085927e-11
1.144499512e-09
-3.352781064e-11
1.113178556e-09
-3.52264873e-11
1.078738794e-09
-3.730102863e-11
1.040792714e-09
-3.973011386e-11
9.987885268e-10
-4.242394277e-11
9.519314527e-10
-4.51648914e-11
8.990516139e-10
-4.750188643e-11
8.383739568e-10
-4.855910133e-11
7.670861328e-10
-4.667868213e-11
6.80430563e-10
-3.892386104e-11
5.696128705e-10
-2.184752796e-11
4.170687996e-10
1.887766449e-10
-2.733043796e-13
5.971173287e-11
-1.068384615e-12
1.746433501e-10
-2.337068176e-12
2.829377807e-10
-4.025527022e-12
3.847054978e-10
-6.074376236e-12
4.801059563e-10
-8.421677124e-12
5.693017857e-10
-1.100473193e-11
6.524605514e-10
-1.376194647e-11
7.297573451e-10
-1.663414487e-11
8.013714632e-10
-1.956575709e-11
8.674846438e-10
-2.25058524e-11
9.282805559e-10
-2.540855143e-11
9.839431584e-10
-2.823364634e-11
1.034656481e-09
-3.094669295e-11
1.080603275e-09
-3.351898643e-11
1.121964653e-09
-3.592753471e-11
1.158919268e-09
-3.815482014e-11
1.191642615e-09
-4.01883162e-11
1.220306426e-09
-4.202028251e-11
1.24507811e-09
-4.364719412e-11
1.2661201e-09
-4.506938848e-11
1.283589166e-09
-4.629059885e-11
1.297635985e-09
-4.731757603e-11
1.308404459e-09
-4.815957838e-11
1.316031134e-09
-4.882817835e-11
1.320644546e-09
-4.933707461e-11
1.3223648e-09
-4.970162032e-11
1.321302393e-09
-4.993877244e-11
1.317558045e-09
-5.006718901e-11
1.311221172e-09
-5.010694212e-11
1.302369284e-09
-5.007962487e-11
1.291066103e-09
-5.000835287e-11
1.277360677e-09
-4.991786255e-11
1.261284149e-09
-4.983441633e-11
1.242847273e-09
-4.978567641e-11
1.222036505e-09
-4.980022844e-11
1.198808231e-09
-4.990666467e-11
1.173081011e-09
-5.01319095e-11
1.144724757e-09
-5.049746853e-11
1.113544114e-09
-5.10133116e-11
1.079254637e-09
-5.166579283e-11
1.041445195e-09
-5.239677607e-11
9.995195099e-10
-5.306602698e-11
9.526007035e-10
-5.338679905e-11
8.993723859e-10
-5.281819149e-11
8.378053492e-10
-5.039812911e-11
7.646660704e-10
-4.455934037e-11
6.745917744e-10
-3.329634238e-11
5.583498726e-10
-1.606370154e-11
3.998361588e-10
1.727129434e-10
-3.321277515e-13
6.004386063e-11
-1.298530717e-12
1.75609753e-10
-2.843524105e-12
2.844827741e-10
-4.904539368e-12
3.867665131e-10
-7.4133609e-12
4.826147778e-10
-1.029892867e-11
5.721873533e-10
-1.348939068e-11
6.556510133e-10
-1.691396322e-11
7.331819178e-10
-2.05042892e-11
8.049617892e-10
-2.419598267e-11
8.711763373e-10
-2.792927639e-11
9.320138497e-10
-3.165001942e-11
9.876639015e-10
-3.530974051e-11
1.038316202e-09
-3.8866252e-11
1.084159786e-09
-4.228338938e-11
1.12538179e-09
-4.553090948e-11
1.162166788e-09
-4.858430125e-11
1.194696007e-09
-5.14244552e-11
1.22314658e-09
-5.403714644e-11
1.247690801e-09
-5.641256e-11
1.268495513e-09
-5.85449355e-11
1.285721541e-09
-6.043203901e-11
1.299523088e-09
-6.207474155e-11
1.310047162e-09
-6.347658493e-11
1.317432978e-09
-6.464349526e-11
1.321811457e-09
-6.558346861e-11
1.323304774e-09
-6.630649961e-11
1.322025424e-09
-6.682408892e-11
1.318075634e-09
-6.714966005e-11
1.311546743e-09
-6.729804636e-11
1.30251767e-09
-6.728582379e-11
1.291053881e-09
-6.713089448e-11
1.277205748e-09
-6.685270782e-11
1.261005962e-09
-6.647204036e-11
1.242466606e-09
-6.601036369e-11
1.221574829e-09
-6.548905439e-11
1.198286922e-09
-6.492784994e-11
1.172519807e-09
-6.434200748e-11
1.144138914e-09
-6.373769112e-11
1.112939798e-09
-6.310370965e-11
1.078620656e-09
-6.239767424e-11
1.04073916e-09
-6.152234528e-11
9.986441809e-10
-6.028748118e-11
9.513658393e-10
-5.835075821e-11
8.974356629e-10
-5.513732929e-11
8.345919202e-10
-4.97623639e-11
7.59291105e-10
-4.107150693e-11
6.659009174e-10
-2.8155578e-11
5.454339436e-10
-1.213214129e-11
3.838127221e-10
1.605808021e-10
-3.863927795e-13
6.04302534e-11
-1.511050532e-12
1.767344107e-10
-3.311051678e-12
2.862827752e-10
-5.715720294e-12
3.891711816e-10
-8.648374963e-12
4.855474324e-10
-1.202926835e-11
5.755682467e-10
-1.57777561e-11
6.593995011e-10
-1.981410511e-11
7.372182669e-10
-2.406117263e-11
8.092088568e-10
-2.844590956e-11
8.755610743e-10
-3.290004391e-11
9.364679842e-10
-3.736117778e-11
9.921250354e-10
-4.177297773e-11
1.042728002e-09
-4.608545364e-11
1.088472262e-09
-5.025512456e-11
1.129551461e-09
-5.424472907e-11
1.166156392e-09
-5.802301441e-11
1.198474293e-09
-6.156436018e-11
1.226687926e-09
-6.484833055e-11
1.250974771e-09
-6.785923727e-11
1.27150642e-09
-7.058564212e-11
1.288447946e-09
-7.301986326e-11
1.301957309e-09
-7.515752387e-11
1.312184822e-09
-7.699726125e-11
1.319272715e-09
-7.854035232e-11
1.323354547e-09
-7.979021304e-11
1.324554634e-09
-8.075263928e-11
1.32298785e-09
-8.143518623e-11
1.318758181e-09
-8.184740993e-11
1.311958966e-09
-8.200060704e-11
1.302670867e-09
-8.190779331e-11
1.290961067e-09
-8.158344215e-11
1.276881397e-09
-8.104343812e-11
1.260465958e-09
-8.030466965e-11
1.241727837e-09
-7.938424448e-11
1.220654404e-09
-7.829837212e-11
1.19720105e-09
-7.706039934e-11
1.171281834e-09
-7.567741608e-11
1.142755931e-09
-7.414486675e-11
1.111407249e-09
-7.243684299e-11
1.076912632e-09
-7.049114048e-11
1.038793457e-09
-6.81844466e-11
9.96337487e-10
-6.52960528e-11
9.484774457e-10
-6.146066316e-11
8.936002733e-10
-5.612495702e-11
8.29256214e-10
-4.855829345e-11
7.517244415e-10
-3.803888861e-11
6.553815125e-10
-2.445768358e-11
5.318527385e-10
-9.710135663e-12
3.690651742e-10
1.508706665e-10
-4.356676267e-13
6.086592103e-11
-1.704042468e-12
1.780027856e-10
-3.735477121e-12
2.8831421e-10
-6.451834237e-12
3.918875388e-10
-9.768576395e-12
4.888641748e-10
-1.359783873e-11
5.793975093e-10
-1.785065187e-11
6.636523143e-10
-2.243885429e-11
7.418064691e-10
-2.72770839e-11
8.140470862e-10
-3.228393645e-11
8.805679269e-10
-3.738327199e-11
9.415673197e-10
-4.250468014e-11
9.972464434e-10
-4.758438808e-11
1.04780771e-09
-5.256515925e-11
1.093453033e-09
-5.73964683e-11
1.13438277e-09
-6.203440269e-11
1.170794327e-09
-6.64414657e-11
1.202881356e-09
-7.058599693e-11
1.230832456e-09
-7.444190432e-11
1.254830679e-09
-7.79881373e-11
1.275052653e-09
-8.120825296e-11
1.291668062e-09
-8.408989229e-11
1.304838949e-09
-8.66243191e-11
1.314719249e-09
-8.880605611e-11
1.321454452e-09
-9.063264425e-11
1.325181136e-09
-9.210420897e-11
1.326026199e-09
-9.322326062e-11
1.324106902e-09
-9.399459149e-11
1.319529512e-09
-9.442509544e-11
1.312389471e-09
-9.452360895e-11
1.302769381e-09
-9.430073363e-11
1.290738192e-09
-9.376856046e-11
1.276349223e-09
-9.294045344e-11
1.259637851e-09
-9.183037606e-11
1.240617759e-09
-9.045200184e-11
1.219276029e-09
-8.881736083e-11
1.195566408e-09
-8.693440724e-11
1.16939888e-09
-8.480342941e-11
1.140624953e-09
-8.241050581e-11
1.109014325e-09
-7.971780555e-11
1.074219932e-09
-7.664760445e-11
1.035723256e-09
-7.305922806e-11
9.927491107e-10
-6.871816467e-11
9.441363822e-10
-6.326694921e-11
8.881490578e-10
-5.622115957e-11
8.222104243e-10
-4.704471224e-11
7.42547994e-10
-3.539777106e-11
6.437345714e-10
-2.169366324e-11
5.181486308e-10
-8.112213655e-12
3.554837246e-10
1.427584528e-10
-4.795548146e-13
6.134547586e-11
-1.875903503e-12
1.793991343e-10
-4.113309022e-12
2.905516155e-10
-7.106936427e-12
3.948811662e-10
-1.076515304e-11
4.925223913e-10
-1.499266419e-11
5.836250202e-10
-1.969283323e-11
6.683524832e-10
-2.476987068e-11
7.468835067e-10
-3.013080749e-11
8.194080231e-10
-3.56866216e-11
8.861237408e-10
-4.135380203e-11
9.472345e-10
-4.705481118e-11
1.002947453e-09
-5.271878318e-11
1.053471682e-09
-5.828190893e-11
1.099016159e-09
-6.368730041e-11
1.139788162e-09
-6.888502978e-11
1.175992056e-09
-7.383177709e-11
1.207828104e-09
-7.849057335e-11
1.235491253e-09
-8.283030229e-11
1.259170408e-09
-8.682526505e-11
1.279047616e-09
-9.045467322e-11
1.29529747e-09
-9.370211587e-11
1.308086391e-09
-9.655533506e-11
1.317572469e-09
-9.90055802e-11
1.323904697e-09
-1.010473214e-10
1.327222877e-09
-1.026781178e-10
1.327656996e-09
-1.038980415e-10
1.325326826e-09
-1.047097814e-10
1.320341252e-09
-1.051182752e-10
1.312797964e-09
-1.051304609e-10
1.302781567e-09
-1.047551119e-10
1.290362843e-09
-1.040025723e-10
1.275596684e-09
-1.028841752e-10
1.258519454e-09
-1.014115516e-10
1.239145136e-09
-9.959567315e-11
1.217460151e-09
-9.744514662e-11
1.193415882e-09
-9.496368716e-11
1.166917421e-09
-9.214587414e-11
1.137807141e-09
-8.897039999e-11
1.105838851e-09
-8.539014228e-11
1.070639674e-09
-8.131635799e-11
1.031649472e-09
-7.659852142e-11
9.880312739e-10
-7.100232006e-11
9.385401807e-10
-6.419988926e-11
8.81346627e-10
-5.579936901e-11
8.138099041e-10
-4.54582292e-11
7.322068543e-10
-3.313937337e-11
6.314157155e-10
-1.957657059e-11
5.04585828e-10
-6.99690988e-12
3.429040639e-10
1.35761543e-10
-5.177296106e-13
6.186320548e-11
-2.025372106e-12
1.809067768e-10
-4.441852386e-12