/*--------------------------------*- C++ -*----------------------------------*\
  =========                 |
  \\      /  F ield         | OpenFOAM: The Open Source CFD Toolbox
   \\    /   O peration     | Website:  https://openfoam.org
    \\  /    A nd           | Version:  7
     \\/     M anipulation  |
\*---------------------------------------------------------------------------*/
FoamFile
{
    version     2.0;
    format      ascii;
    class       volVectorField;
    location    "0.0021";
    object      U;
}
// * * * * * * * * * * * * * * * * * * * * * * * * * * * * * * * * * * * * * //

dimensions      [0 1 -1 0 0 0 0];

internalField   nonuniform List<vector> 
1167
(
(-8.687533422e-06 -3.888271198e-20 -0.002320178782)
(-2.247128261e-05 -1.528392378e-19 -0.002319814619)
(-1.007679662e-05 8.92061884e-20 -0.002346257687)
(-2.60574605e-05 3.267519224e-19 -0.002345842151)
(-4.103345623e-05 3.496424607e-19 -0.002345295981)
(-5.651386636e-05 6.161596773e-19 -0.002344380202)
(-7.163780404e-05 9.073379601e-19 -0.002343134691)
(-8.632707704e-05 1.303627477e-19 -0.002341555528)
(-0.0001005716499 -2.291791233e-19 -0.00233962365)
(-0.0001143383426 -4.911644848e-19 -0.002337320365)
(-0.0001275966907 -5.381315434e-19 -0.00233462693)
(-0.0001403192748 -6.906370742e-19 -0.002331524625)
(-0.0001524791575 -5.979572798e-19 -0.002327995669)
(-0.0001640494284 -6.003226466e-19 -0.002324024336)
(-0.0001750036521 -6.407159449e-19 -0.002319597326)
(-0.0001853154022 -5.759784993e-19 -0.00231470391)
(-0.000194958392 -5.683084242e-19 -0.002309336661)
(-0.0002039067583 -5.885881349e-19 -0.002303491171)
(-0.0002121346539 -5.226983281e-19 -0.002297166348)
(-0.000219616825 -4.884970149e-19 -0.002290364552)
(-0.0002263281602 -4.462837121e-19 -0.002283091326)
(-0.0002322441915 -4.064912091e-19 -0.002275355719)
(-0.0002373407498 -3.661933379e-19 -0.002267169919)
(-0.0002415943931 -3.539304655e-19 -0.002258549594)
(-0.0002449821624 -3.232116063e-19 -0.002249513552)
(-0.0002474819981 -2.85707895e-19 -0.002240084118)
(-0.000249072604 -1.749236873e-19 -0.002230286929)
(-0.0002497339244 -1.252747221e-19 -0.00222015126)
(-0.0002494471884 -4.786824962e-20 -0.002209709955)
(-0.0002481954748 2.974082237e-20 -0.002198999793)
(-0.0002459639609 1.289373266e-19 -0.002188061554)
(-0.0002427406582 1.865587193e-19 -0.002176940369)
(-0.0002385169392 2.549116996e-19 -0.002165685769)
(-0.0002332884288 3.300054667e-19 -0.002154351913)
(-0.0002270558255 3.321532563e-19 -0.002142997583)
(-0.0002198258865 3.956641866e-19 -0.002131685989)
(-0.0002116124251 3.953985962e-19 -0.002120484527)
(-0.0002024373785 4.154488128e-19 -0.00210946401)
(-0.0001923316607 4.503188847e-19 -0.002098697993)
(-0.0001813360361 5.048773684e-19 -0.00208826149)
(-0.0001695015217 5.125113036e-19 -0.002078229721)
(-0.0001568897448 5.47815256e-19 -0.002068676551)
(-0.0001435726159 5.597386552e-19 -0.002059673125)
(-0.0001296317815 5.543258719e-19 -0.002051286427)
(-0.0001151574827 5.516380339e-19 -0.002043578224)
(-0.0001002471976 5.480164774e-19 -0.002036604196)
(-8.500385642e-05 5.415395181e-19 -0.0020304135)
(-6.953390709e-05 5.620747822e-19 -0.002025048629)
(-5.394528322e-05 5.748918983e-19 -0.002020545815)
(-3.834810392e-05 5.862661182e-19 -0.002016935384)
(-2.285522477e-05 6.007379259e-19 -0.002014240953)
(-7.566148147e-06 6.228739846e-19 -0.002012479971)
(-1.162514994e-05 -1.069050843e-19 -0.002375923311)
(-3.005260228e-05 -3.755152554e-19 -0.00237545159)
(-4.732402256e-05 5.024607708e-19 -0.002374827284)
(-6.518532358e-05 6.446126366e-19 -0.002373781812)
(-8.263559772e-05 5.930344615e-19 -0.002372362407)
(-9.959092381e-05 4.431443694e-20 -0.002370564895)
(-0.0001160413984 -2.802322427e-19 -0.002368368448)
(-0.0001319507165 -5.840791864e-19 -0.002365752894)
(-0.0001472865822 -6.152682114e-19 -0.002362697549)
(-0.0001620202305 -6.374195619e-19 -0.002359181452)
(-0.0001761234305 -6.185104355e-19 -0.002355184565)
(-0.0001895685112 -6.490411393e-19 -0.002350688971)
(-0.0002023282484 -6.765669651e-19 -0.002345678893)
(-0.0002143753147 -6.538729326e-19 -0.00234014131)
(-0.0002256828147 -6.578030859e-19 -0.002334066402)
(-0.0002362237826 -6.972298712e-19 -0.002327447295)
(-0.000245971433 -6.083072123e-19 -0.002320280624)
(-0.0002548989997 -5.47950126e-19 -0.002312566121)
(-0.0002629797362 -5.23963788e-19 -0.002304307034)
(-0.0002701869071 -4.456332224e-19 -0.002295509713)
(-0.0002764936605 -3.944261801e-19 -0.00228618392)
(-0.0002818730665 -3.770359716e-19 -0.002276342578)
(-0.0002862980307 -3.498523498e-19 -0.002266002017)
(-0.0002897412576 -3.219763223e-19 -0.002255181876)
(-0.0002921753575 -2.356503687e-19 -0.002243905505)
(-0.0002935728477 -1.831841563e-19 -0.002232199877)
(-0.0002939064024 -1.368016433e-19 -0.002220096124)
(-0.0002931489981 -7.568997326e-21 -0.002207629684)
(-0.0002912743715 1.100788774e-19 -0.002194840985)
(-0.0002882575152 1.792362871e-19 -0.002181775705)
(-0.0002840754232 2.584387892e-19 -0.0021684855)
(-0.0002787079408 3.437913331e-19 -0.002155028334)
(-0.0002721389703 3.945387749e-19 -0.002141468952)
(-0.0002643576765 4.171735223e-19 -0.002127879198)
(-0.0002553602688 4.207543697e-19 -0.00211433786)
(-0.0002451515137 4.372726197e-19 -0.002100930527)
(-0.0002337467099 4.684420186e-19 -0.002087748714)
(-0.000221173509 5.115700189e-19 -0.002074888803)
(-0.0002074735354 5.287123511e-19 -0.002062450299)
(-0.0001927040124 5.565086746e-19 -0.002050533931)
(-0.0001769384811 5.600991184e-19 -0.00203923946)
(-0.0001602671961 5.620792578e-19 -0.00202866311)
(-0.000142796522 5.589575345e-19 -0.002018895619)
(-0.0001246475753 5.620815775e-19 -0.002010020093)
(-0.0001059539293 5.635187857e-19 -0.00200211084)
(-8.68585077e-05 5.65860051e-19 -0.001995232551)
(-6.751063159e-05 5.735287578e-19 -0.001989440591)
(-4.806581496e-05 5.813868689e-19 -0.001984781195)
(-2.868169665e-05 5.936005867e-19 -0.001981289878)
(-9.496931871e-06 6.044626493e-19 -0.001978993576)
(-1.333737253e-05 -2.700740729e-19 -0.002409491261)
(-3.446854799e-05 -9.276176813e-19 -0.002408958159)
(-5.42764056e-05 -5.40432983e-19 -0.002408246963)
(-7.476930516e-05 -5.900346043e-20 -0.002407058152)
(-9.478961739e-05 1.128875218e-19 -0.002405447439)
(-0.0001142481154 -1.591776132e-19 -0.002403410577)
(-0.0001331352165 -3.588976485e-19 -0.002400925507)
(-0.0001514115739 -5.958751396e-19 -0.002397970794)
(-0.0001690432352 -6.843014001e-19 -0.002394523983)
(-0.000186000229 -7.714484391e-19 -0.002390562069)
(-0.0002022537675 -5.771459278e-19 -0.002386063237)
(-0.0002177761446 -6.694897672e-19 -0.002381007295)
(-0.0002325398774 -6.726360096e-19 -0.002375376106)
(-0.000246517913 -6.973464246e-19 -0.002369154521)
(-0.0002596835111 -7.048969054e-19 -0.002362330077)
(-0.0002720098084 -6.984156968e-19 -0.00235489347)
(-0.0002834701817 -6.461958159e-19 -0.002346838592)
(-0.000294037593 -5.702013234e-19 -0.002338162324)
(-0.0003036849721 -4.783414095e-19 -0.00232886485)
(-0.0003123845769 -4.569240955e-19 -0.002318949226)
(-0.0003201082422 -3.867042217e-19 -0.002308421688)
(-0.0003268268276 -4.100614702e-19 -0.002297291297)
(-0.0003325103093 -3.756984858e-19 -0.002285570282)
(-0.0003371273375 -3.536858698e-19 -0.002273273882)
(-0.0003406452291 -3.351692829e-19 -0.00226042075)
(-0.0003430298209 -2.183248625e-19 -0.002247033152)
(-0.0003442453341 -1.504061383e-19 -0.00223313726)
(-0.0003442543819 -4.527700945e-20 -0.002218763898)
(-0.000343018168 3.890146698e-20 -0.002203948985)
(-0.0003404967116 1.556799037e-19 -0.002188734599)
(-0.0003366493956 2.487783067e-19 -0.002173169757)
(-0.000331435838 3.244667443e-19 -0.002157311424)
(-0.0003248167544 4.030329659e-19 -0.002141225579)
(-0.0003167557171 4.135055775e-19 -0.002124988057)
(-0.000307220957 4.22796216e-19 -0.002108685545)
(-0.0002961876891 4.491469441e-19 -0.002092415812)
(-0.000283641083 4.747570525e-19 -0.002076287672)
(-0.0002695794494 4.943444937e-19 -0.002060420631)
(-0.0002540177401 5.193339452e-19 -0.002044943189)
(-0.0002369912467 5.42005141e-19 -0.002029991037)
(-0.0002185589835 5.643279716e-19 -0.002015704014)
(-0.0001988063227 5.905761659e-19 -0.002002222534)
(-0.0001778469612 6.257887387e-19 -0.001989683648)
(-0.00015582279 5.812359111e-19 -0.001978216929)
(-0.0001329022096 5.601206069e-19 -0.001967940737)
(-0.0001092759177 5.904162727e-19 -0.001958959701)
(-8.515275341e-05 5.75272899e-19 -0.00195136388)
(-6.075735116e-05 5.636324532e-19 -0.001945228279)
(-3.631657656e-05 5.472046542e-19 -0.00194060959)
(-1.203105091e-05 5.650305625e-19 -0.001937551628)
(-1.521585168e-05 -2.822442799e-19 -0.002447269117)
(-3.931092738e-05 -9.628276892e-19 -0.002446668914)
(-6.189910639e-05 -1.913110792e-18 -0.002445860652)
(-8.527714656e-05 -6.947427788e-19 -0.002444512962)
(-0.0001081130507 -5.713494142e-19 -0.002442691326)
(-0.0001303131196 -3.841914567e-19 -0.002440391897)
(-0.0001518682321 -4.302205934e-19 -0.002437591812)
(-0.0001727358207 -4.672336215e-19 -0.002434268684)
(-0.0001928802266 -7.249711403e-19 -0.002430398701)
(-0.0002122707604 -8.730154585e-19 -0.002425957502)
(-0.0002308788969 -8.014531142e-19 -0.002420921718)
(-0.000248677285 -7.445869585e-19 -0.002415269165)
(-0.0002656392196 -6.386853841e-19 -0.002408979891)
(-0.0002817389878 -7.36446104e-19 -0.002402036602)
(-0.0002969509695 -7.70359532e-19 -0.002394424474)
(-0.0003112499582 -7.680486926e-19 -0.002386131856)
(-0.0003246106092 -7.260783324e-19 -0.00237714973)
(-0.0003370074818 -6.407889585e-19 -0.002367472171)
(-0.0003484145546 -4.95702344e-19 -0.002357095734)
(-0.0003588051543 -5.378117008e-19 -0.002346019879)
(-0.0003681514621 -5.071323305e-19 -0.002334246351)
(-0.000376424329 -5.084379233e-19 -0.002321779543)
(-0.0003835927229 -4.751183715e-19 -0.002308626056)
(-0.0003896234541 -3.50978188e-19 -0.002294795141)
(-0.0003944806803 -2.619692184e-19 -0.00228029849)
(-0.0003981255156 -2.017707298e-19 -0.002265150802)
(-0.0004005155515 -1.374647368e-19 -0.002249370143)
(-0.0004016046257 -3.782431751e-20 -0.00223297834)
(-0.0004013423148 3.576621395e-20 -0.00221600212)
(-0.0003996738145 1.598705914e-19 -0.002198474059)
(-0.0003965401221 2.77359691e-19 -0.002180433892)
(-0.0003918780117 3.869528666e-19 -0.002161930072)
(-0.0003856207465 3.98954379e-19 -0.002143021343)
(-0.0003776992127 4.274797357e-19 -0.002123778864)
(-0.0003680435453 4.686657329e-19 -0.002104288249)
(-0.0003565856159 4.712139286e-19 -0.002084650954)
(-0.0003432622791 5.0212484e-19 -0.002064986163)
(-0.0003280200185 5.41615963e-19 -0.002045431942)
(-0.0003108202384 5.376004837e-19 -0.002026145177)
(-0.0002916458189 5.465455145e-19 -0.002007301034)
(-0.0002705087057 5.604252427e-19 -0.001989090533)
(-0.0002474574266 5.704287954e-19 -0.001971716471)
(-0.0002225847213 5.814638507e-19 -0.0019553878)
(-0.0001960330205 5.573232568e-19 -0.001940311997)
(-0.0001679969737 5.262325429e-19 -0.001926686514)
(-0.0001387214231 5.595366912e-19 -0.001914691509)
(-0.0001084970253 5.618008267e-19 -0.001904484435)
(-7.765442849e-05 5.632866061e-19 -0.001896195613)
(-4.653121628e-05 5.622276521e-19 -0.001889921517)
(-1.543008363e-05 5.731274366e-19 -0.001885737104)
(-1.726037069e-05 -2.048696082e-19 -0.002489549759)
(-4.457856773e-05 -7.533387237e-19 -0.002488876142)
(-7.018987074e-05 -1.387230121e-18 -0.002487958896)
(-9.67051558e-05 -7.867126982e-19 -0.002486434394)
(-0.0001225999001 -7.782703827e-19 -0.002484379608)
(-0.0001477770437 -5.432209814e-19 -0.002481791408)
(-0.0001722276525 -5.503092804e-19 -0.002478646536)
(-0.000195905523 -5.550240165e-19 -0.002474922303)
(-0.0002187733498 -8.114968336e-19 -0.002470594267)
(-0.0002408004042 -8.89240849e-19 -0.002465637518)
(-0.00026195882 -1.011964896e-18 -0.002460027492)
(-0.0002822221792 -9.041344006e-19 -0.002453740691)
(-0.0003015657969 -7.534631994e-19 -0.002446755943)
(-0.0003199659826 -8.315735173e-19 -0.002439054051)
(-0.0003373997499 -8.813056672e-19 -0.002430618593)
(-0.000353844753 -8.922872601e-19 -0.002421435603)
(-0.0003692786764 -8.69506567e-19 -0.00241149371)
(-0.0003836792463 -8.30432124e-19 -0.002400784038)
(-0.0003970236209 -7.657549459e-19 -0.002389299863)
(-0.0004092881453 -7.902110596e-19 -0.002377036557)
(-0.0004204478727 -6.952798868e-19 -0.002363991395)
(-0.0004304760507 -6.332541346e-19 -0.002350163172)
(-0.0004393435808 -5.719605436e-19 -0.002335552312)
(-0.0004470184355 -4.423420528e-19 -0.002320160447)
(-0.0004534649243 -2.25937065e-19 -0.002303990797)
(-0.0004586428972 -1.682730378e-19 -0.002287048111)
(-0.0004625071745 -3.852070725e-20 -0.002269338977)
(-0.0004650064234 4.600271681e-21 -0.002250872442)
(-0.0004660823275 1.030067787e-19 -0.002231660757)
(-0.000465668892 2.493965851e-19 -0.002211720499)
(-0.0004636914042 3.041203716e-19 -0.002191074135)
(-0.0004600657754 4.174427358e-19 -0.002169751798)
(-0.0004546980144 3.842671535e-19 -0.002147793349)
(-0.0004474839519 4.016142562e-19 -0.002125251531)
(-0.0004383099077 4.384105948e-19 -0.002102195242)
(-0.0004270538211 4.512476933e-19 -0.002078712813)
(-0.0004135875013 4.824915407e-19 -0.002054916097)
(-0.0003977808311 5.297654065e-19 -0.002030944766)
(-0.0003795078866 5.596765376e-19 -0.002006970179)
(-0.0003586553543 6.154699926e-19 -0.001983198361)
(-0.0003351341978 5.696563318e-19 -0.001959871654)
(-0.0003088944709 5.601436965e-19 -0.001937268326)
(-0.0002799424885 5.605265008e-19 -0.00191569802)
(-0.0002483592121 5.556440999e-19 -0.001895492041)
(-0.000214316838 5.48394402e-19 -0.001876988997)
(-0.0001780897877 5.621031964e-19 -0.001860515858)
(-0.0001400611324 5.687432215e-19 -0.001846368829)
(-0.0001007170382 5.706540209e-19 -0.001834794225)
(-6.057633029e-05 5.81863397e-19 -0.001825970001)
(-2.012240938e-05 5.936635278e-19 -0.001820032787)
(-1.946783643e-05 -1.182215908e-19 -0.002536605347)
(-5.026277797e-05 -4.78916405e-19 -0.002535851389)
(-7.913477691e-05 -8.462458107e-19 -0.002534811182)
(-0.0001090338927 -5.839300203e-19 -0.002533088828)
(-0.0001382241388 -5.930888707e-19 -0.002530774933)
(-0.0001666063214 -5.30653618e-19 -0.002527867152)
(-0.0001941711762 -6.796785942e-19 -0.002524342684)
(-0.0002208682547 -8.099471162e-19 -0.002520179352)
(-0.0002466589226 -1.022568695e-18 -0.002515353357)
(-0.0002715128395 -1.195936568e-18 -0.002509839774)
(-0.0002954028387 -1.164505322e-18 -0.002503613542)
(-0.0003183043945 -1.096163628e-18 -0.002496651052)
(-0.000340195551 -9.936971321e-19 -0.002488930358)
(-0.0003610556175 -1.033634731e-18 -0.00248043131)
(-0.0003808655873 -1.050020818e-18 -0.002471136464)
(-0.0003996071294 -1.047640846e-18 -0.002461030211)
(-0.0004172627053 -1.027004346e-18 -0.002450099501)
(-0.0004338147967 -1.012964361e-18 -0.002438332951)
(-0.0004492458197 -1.000022396e-18 -0.002425721111)
(-0.0004635373593 -9.512135364e-19 -0.002412255589)
(-0.0004766697715 -8.550891807e-19 -0.002397929248)
(-0.0004886215761 -7.656006864e-19 -0.002382735595)
(-0.0004993688141 -6.491348846e-19 -0.002366668335)
(-0.000508884176 -5.46468432e-19 -0.002349721343)
(-0.0005171361838 -3.730449853e-19 -0.002331888245)
(-0.0005240882761 -2.593825202e-19 -0.002313162421)
(-0.0005296974907 -1.018537872e-19 -0.002293537022)
(-0.0005339132637 -1.154545445e-20 -0.002273005182)
(-0.0005366760421 1.355849146e-19 -0.002251560405)
(-0.0005379156134 1.834334961e-19 -0.002229197554)
(-0.0005375491911 2.208387563e-19 -0.002205914091)
(-0.0005354795988 2.90885494e-19 -0.002181711493)
(-0.0005315930648 3.062229358e-19 -0.002156597526)
(-0.0005257569568 3.30431142e-19 -0.002130589455)
(-0.0005178179009 3.625823091e-19 -0.002103718043)
(-0.0005076001451 3.938978421e-19 -0.002076032448)
(-0.000494904583 4.266499525e-19 -0.002047606457)
(-0.0004795092135 4.605119761e-19 -0.002018546332)
(-0.0004611720851 4.87089858e-19 -0.001989000044)
(-0.0004396375796 5.025202343e-19 -0.001959167875)
(-0.0004146478057 4.692261235e-19 -0.001929313738)
(-0.0003859608303 5.169714544e-19 -0.001899775841)
(-0.0003533777365 5.478572023e-19 -0.001870973305)
(-0.0003167790041 5.78790649e-19 -0.001843404503)
(-0.0002761689075 6.128612181e-19 -0.00181763257)
(-0.0002317253093 5.716475404e-19 -0.001794255852)
(-0.0001838545588 5.387665425e-19 -0.001773864439)
(-0.0001332200989 5.716303072e-19 -0.001756976479)
(-8.062117594e-05 6.005126165e-19 -0.001743970689)
(-2.686867622e-05 6.159927139e-19 -0.001735127558)
(-2.183192805e-05 3.537435294e-20 -0.002588680926)
(-5.634690301e-05 -2.642896023e-20 -0.002587838257)
(-8.870839668e-05 1.222206825e-19 -0.002586658659)
(-0.0001222287019 -2.834321773e-19 -0.002584713243)
(-0.0001549402503 -3.786961537e-19 -0.002582109141)
(-0.0001867436506 -7.964950902e-19 -0.002578845)
(-0.0002176283678 -8.26615539e-19 -0.002574899449)
(-0.0002475393353 -1.027788909e-18 -0.002570252317)
(-0.0002764368153 -1.263174752e-18 -0.002564881363)
(-0.0003042905268 -1.622038214e-18 -0.002558762516)
(-0.0003310743838 -1.419630058e-18 -0.002551871531)
(-0.000356766513 -1.357775784e-18 -0.002544185546)
(-0.000381347873 -1.336602431e-18 -0.002535682674)
(-0.0004048020372 -1.274235108e-18 -0.002526343198)
(-0.0004271145692 -1.253371553e-18 -0.002516149108)
(-0.0004482726462 -1.23293269e-18 -0.002505084543)
(-0.0004682645148 -1.216511263e-18 -0.002493135146)
(-0.0004870791731 -1.200118923e-18 -0.002480288394)
(-0.0005047058138 -1.164310096e-18 -0.002466532484)
(-0.0005211332751 -1.080733903e-18 -0.002451856474)
(-0.0005363494795 -9.934798656e-19 -0.002436249393)
(-0.0005503407786 -9.1352283e-19 -0.002419700029)
(-0.0005630911967 -8.280319602e-19 -0.002402196309)
(-0.0005745817323 -6.674235102e-19 -0.002383724565)
(-0.0005847892703 -5.417177363e-19 -0.002364269225)
(-0.0005936854111 -4.210939743e-19 -0.002343812349)
(-0.0006012352502 -3.159424174e-19 -0.002322333214)
(-0.0006073959185 -1.559895288e-19 -0.002299807991)
(-0.0006121146983 -1.466321202e-20 -0.002276209582)
(-0.0006153267489 7.224931144e-20 -0.002251507921)
(-0.0006169527043 1.595535928e-19 -0.00222567041)
(-0.0006168956029 1.713348584e-19 -0.00219866234)
(-0.0006150371406 2.038306782e-19 -0.002170448372)
(-0.0006112334483 2.405877474e-19 -0.002140994752)
(-0.0006053099667 2.837072448e-19 -0.002110272271)
(-0.0005970558739 3.298048118e-19 -0.002078260849)
(-0.0005862177686 3.691058194e-19 -0.002044956168)
(-0.0005724931055 4.053943922e-19 -0.002010379103)
(-0.0005555243405 4.381154124e-19 -0.001974589031)
(-0.0005348946326 4.626520255e-19 -0.00193770189)
(-0.0005101276997 3.697867985e-19 -0.001899913898)
(-0.000480695424 4.874852976e-19 -0.001861530851)
(-0.0004460391124 5.782053326e-19 -0.001823001066)
(-0.0004056117082 5.759708319e-19 -0.001784948588)
(-0.000358949041 5.865726212e-19 -0.001748199741)
(-0.0003057799521 5.829374553e-19 -0.001713789702)
(-0.0002461892926 5.842497292e-19 -0.00168291557)
(-0.0001807845454 6.088001086e-19 -0.001656774923)
(-0.0001106213685 6.233751769e-19 -0.001636316062)
(-3.710128007e-05 6.335600439e-19 -0.001622234221)
(-2.434406698e-05 7.730270333e-20 -0.002645980091)
(-6.280811855e-05 2.079788328e-19 -0.002645038902)
(-9.887599462e-05 2.838824895e-19 -0.00264370439)
(-0.0001362423285 -2.894465489e-19 -0.002641507794)
(-0.0001726863346 3.536222702e-19 -0.002638579404)
(-0.0002081114963 -6.249471711e-19 -0.002634918678)
(-0.0002425050102 -9.011738044e-19 -0.00263050694)
(-0.0002758067158 -1.228004833e-18 -0.002625327532)
(-0.0003079752975 -1.632417833e-18 -0.002619360541)
(-0.0003389800685 -1.765544904e-18 -0.002612583847)
(-0.0003687965015 -1.617586013e-18 -0.002604975637)
(-0.0003974052217 -1.628867774e-18 -0.002596514464)
(-0.0004247906945 -1.652169019e-18 -0.002587180001)
(-0.0004509411724 -1.507649483e-18 -0.002576953753)
(-0.0004758475236 -1.468557691e-18 -0.002565818545)
(-0.0004995031676 -1.432221297e-18 -0.002553759091)
(-0.0005219032143 -1.400546119e-18 -0.002540761111)
(-0.0005430440778 -1.405391468e-18 -0.002526811517)
(-0.0005629229779 -1.446773452e-18 -0.002511897813)
(-0.0005815373855 -1.245197691e-18 -0.002496007111)
(-0.0005988843042 -1.146484529e-18 -0.002479126094)
(-0.0006149596257 -1.050798106e-18 -0.002461240003)
(-0.0006297576778 -9.543355054e-19 -0.00244233199)
(-0.0006432700837 -7.819295621e-19 -0.002422382259)
(-0.0006554849155 -6.192685653e-19 -0.00240136738)
(-0.0006663856971 -5.474556338e-19 -0.002379259413)
(-0.0006759501674 -4.519464157e-19 -0.002356025034)
(-0.0006841487051 -3.097356403e-19 -0.0023316246)
(-0.0006909425011 -1.825305153e-19 -0.00230601136)
(-0.0006962812716 -7.779791235e-20 -0.002279130661)
(-0.0007001006348 5.757184561e-21 -0.002250919117)
(-0.0007023185471 4.599318452e-20 -0.002221303709)
(-0.0007028308944 8.469745634e-20 -0.002190201201)
(-0.0007015060808 1.299747072e-19 -0.002157518064)
(-0.0006981778517 1.903025094e-19 -0.002123150532)
(-0.0006926362704 2.766896081e-19 -0.002086985623)
(-0.0006846164676 3.991954797e-19 -0.002048904037)
(-0.0006737840936 3.638210981e-19 -0.002008785619)
(-0.0006597177061 3.867343696e-19 -0.0019665198)
(-0.0006418875219 4.471653475e-19 -0.001922023112)
(-0.0006196313823 5.293841746e-19 -0.001875267617)
(-0.0005921302743 4.832713731e-19 -0.001826326964)
(-0.0005583899058 4.980906348e-19 -0.001775447154)
(-0.000517237076 5.119834814e-19 -0.001723148393)
(-0.0004673461564 5.390714505e-19 -0.001670355887)
(-0.0004073345316 5.670786227e-19 -0.001618533037)
(-0.0003360107819 6.070614091e-19 -0.001569738269)
(-0.0002527804265 6.563390355e-19 -0.001526465037)
(-0.0001579443052 6.878825076e-19 -0.001491224057)
(-5.363906488e-05 5.626050105e-19 -0.001466284165)
(-2.699308519e-05 1.121712944e-19 -0.002708675943)
(-6.96171638e-05 3.87658718e-19 -0.002707627853)
(-0.0001095927274 -5.107682139e-21 -0.00270612855)
(-0.0001510127718 -1.561572809e-19 -0.002703647768)
(-0.0001913793971 5.339786491e-19 -0.002700355136)
(-0.000230604525 -4.099336553e-19 -0.002696250696)
(-0.0002686716724 -9.335186336e-19 -0.002691319718)
(-0.0003055142842 -1.344759015e-18 -0.002685549959)
(-0.000341088386 -1.759771918e-18 -0.002678924876)
(-0.0003753627887 -1.862784655e-18 -0.00267142605)
(-0.0004083143534 -2.020604057e-18 -0.00266303503)
(-0.0004399258807 -1.894533613e-18 -0.00265373316)
(-0.0004701858786 -1.844863933e-18 -0.002643503335)
(-0.000499087212 -1.709928526e-18 -0.002632329228)
(-0.0005266267442 -1.68135787e-18 -0.002620196406)
(-0.000552804403 -1.61188599e-18 -0.002607091181)
(-0.0005776227724 -1.557279156e-18 -0.002593001164)
(-0.000601086309 -1.436986868e-18 -0.002577914197)
(-0.000623200866 -1.472050283e-18 -0.002561818335)
(-0.0006439730342 -1.454221039e-18 -0.002544700914)
(-0.0006634095863 -1.316493491e-18 -0.002526547768)
(-0.0006815168345 -1.200385241e-18 -0.002507342566)
(-0.0006982997961 -1.07286914e-18 -0.002487065835)
(-0.0007137615057 -9.236141745e-19 -0.002465694092)
(-0.0007279023181 -7.724819635e-19 -0.002443198712)
(-0.0007407189185 -6.829289768e-19 -0.002419544867)
(-0.0007522032238 -5.749353604e-19 -0.002394690162)
(-0.0007623410964 -4.528111085e-19 -0.002368583308)
(-0.0007711108468 -3.302789688e-19 -0.002341162662)
(-0.0007784813958 -2.031414361e-19 -0.0023123546)
(-0.0007844100382 -8.824012244e-20 -0.002282071418)
(-0.000788839267 -8.732741261e-20 -0.00225020888)
(-0.0007916930313 -5.275568235e-20 -0.00221664356)
(-0.0007928717404 -2.315449663e-20 -0.002181229903)
(-0.0007922453933 3.245449829e-20 -0.002143796358)
(-0.0007896446375 1.122679928e-19 -0.002104140819)
(-0.0007848478827 2.011105495e-19 -0.002062026235)
(-0.0007775642367 2.311704696e-19 -0.002017176484)
(-0.0007674091423 2.586170477e-19 -0.001969273367)
(-0.0007538705704 2.966263589e-19 -0.001917957833)
(-0.0007362616676 3.488544504e-19 -0.001862840055)
(-0.0007136549321 3.586610373e-19 -0.001803526346)
(-0.0006847912706 3.803076548e-19 -0.001739674878)
(-0.0006479568648 4.048143767e-19 -0.001671096337)
(-0.0006008236089 4.490788996e-19 -0.001597920293)
(-0.0005403040111 5.020189015e-19 -0.001520878081)
(-0.000462603607 5.801475607e-19 -0.00144179416)
(-0.0003635112592 7.118221224e-19 -0.001364325672)
(-0.0002382846525 6.451155934e-19 -0.001294912702)
(-8.430273713e-05 6.105558237e-19 -0.001243525275)
(-2.97571935e-05 -3.320634443e-19 -0.002776959198)
(-7.672734788e-05 -3.635036959e-19 -0.002775799347)
(-0.0001207900772 -3.475627715e-19 -0.002774101699)
(-0.0001664484399 -5.382829363e-19 -0.002771273619)
(-0.0002108984744 -2.04201795e-19 -0.002767538322)
(-0.0002540723562 -5.795690553e-19 -0.002762897951)
(-0.0002959472789 -1.02422994e-18 -0.002757342245)
(-0.0003364482804 -1.47570457e-18 -0.002750864815)
(-0.0003755282767 -1.854307613e-18 -0.002743454326)
(-0.0004131557946 -2.226958202e-18 -0.00273509784)
(-0.0004493084614 -2.241901654e-18 -0.002725781169)
(-0.0004839717876 -2.171243864e-18 -0.002715490405)
(-0.000517138256 -1.920448799e-18 -0.002704212237)
(-0.0005488059613 -1.86536897e-18 -0.002691934181)
(-0.0005789777425 -1.733608037e-18 -0.002678644612)
(-0.0006076604427 -1.79994618e-18 -0.002664333009)
(-0.0006348642032 -1.739235798e-18 -0.002648988789)
(-0.0006606014735 -1.652578559e-18 -0.002632601591)
(-0.000684886512 -1.594817283e-18 -0.002615160366)
(-0.0007077347139 -1.600017067e-18 -0.002596652533)
(-0.0007291618137 -1.509560947e-18 -0.002577063329)
(-0.0007491832506 -1.378867201e-18 -0.002556374837)
(-0.000767813417 -1.231668109e-18 -0.002534564843)
(-0.000785065074 -1.092422052e-18 -0.002511605929)
(-0.0008009485207 -9.682694509e-19 -0.002487464056)
(-0.000815470754 -8.611096569e-19 -0.002462097165)
(-0.000828634544 -7.29490961e-19 -0.00243545358)
(-0.0008404374177 -6.159404448e-19 -0.002407470165)
(-0.000850870382 -4.977171235e-19 -0.002378070311)
(-0.0008599166821 -3.741508622e-19 -0.002347161492)
(-0.0008675496502 -2.37481597e-19 -0.002314632135)
(-0.0008737308349 -1.307980752e-19 -0.00228034804)
(-0.0008784070534 -1.976014684e-19 -0.002244147156)
(-0.0008815064331 -2.312355259e-19 -0.002205834197)
(-0.0008829336594 -2.670303165e-19 -0.002165172576)
(-0.0008825630821 -8.313057978e-20 -0.002121874219)
(-0.000880228869 3.592645293e-20 -0.002075586392)
(-0.0008757113816 9.920019861e-20 -0.002025873931)
(-0.0008687164691 1.557952346e-19 -0.001972197216)
(-0.0008588448601 8.182424431e-20 -0.001913883117)
(-0.0008455445689 1.638260403e-19 -0.001850088664)
(-0.0008280369166 2.114488543e-19 -0.001779757918)
(-0.0008051992037 2.465141268e-19 -0.001701575068)
(-0.0007753784458 2.871827296e-19 -0.001613930607)
(-0.0007360989366 3.247932868e-19 -0.001514962711)
(-0.000683645549 3.570474477e-19 -0.001402853771)
(-0.0006125141707 3.840290728e-19 -0.001276736173)
(-0.0005139486476 3.963469533e-19 -0.001138658477)
(-0.0003703716359 3.7221326e-19 -0.0009977097596)
(-0.0001529857471 3.834254527e-19 -0.0008785747131)
(-3.236977057e-05 -2.174751429e-18 -0.002848046349)
(-8.340391633e-05 -1.258408363e-18 -0.002846862407)
(-0.0001312809895 -5.81812316e-19 -0.002844946757)
(-0.0001809032749 -6.561080282e-19 -0.002841783287)
(-0.0002291730672 -6.055939506e-19 -0.002837624609)
(-0.000276041567 -7.870929618e-19 -0.00283247653)
(-0.0003214781633 -1.104770814e-18 -0.002826334816)
(-0.000365399498 -1.545227675e-18 -0.002819200746)
(-0.0004077557113 -1.959626798e-18 -0.002811071011)
(-0.0004485145346 -2.424485976e-18 -0.002801939785)
(-0.0004876538457 -2.29085217e-18 -0.002791799486)
(-0.000525161434 -2.228175828e-18 -0.002780643066)
(-0.0005610327576 -2.214301047e-18 -0.002768462837)
(-0.0005952701947 -2.1771108e-18 -0.002755252286)
(-0.0006278814862 -2.170177778e-18 -0.002741004524)
(-0.0006588789948 -2.178774839e-18 -0.002725713513)
(-0.0006882787323 -2.183110353e-18 -0.002709372979)
(-0.0007160994821 -1.97477743e-18 -0.002691975731)
(-0.0007423618131 -1.841072273e-18 -0.002673513614)
(-0.0007670874334 -1.816869605e-18 -0.002653976557)
(-0.0007902984357 -1.598219018e-18 -0.002633351509)
(-0.0008120164142 -1.505989951e-18 -0.002611621706)
(-0.0008322617834 -1.426334819e-18 -0.00258876563)
(-0.0008510530205 -1.283919618e-18 -0.002564755786)
(-0.0008684058603 -1.08541227e-18 -0.002539557402)
(-0.000884332441 -9.253793169e-19 -0.002513127019)
(-0.000898840511 -8.883843241e-19 -0.002485410794)
(-0.0009119323942 -8.082268932e-19 -0.002456342478)
(-0.0009236038779 -7.058852275e-19 -0.002425841182)
(-0.0009338429109 -5.984169348e-19 -0.002393808971)
(-0.0009426278983 -4.884190027e-19 -0.002360127322)
(-0.0009499262909 -4.012537214e-19 -0.002324653019)
(-0.0009556917853 -4.284992771e-19 -0.002287212885)
(-0.000959861532 -3.838184161e-19 -0.00224759718)
(-0.000962352372 -3.437407035e-19 -0.002205550598)
(-0.0009630556077 -2.351997989e-19 -0.002160760609)
(-0.0009618308056 -1.278087477e-19 -0.002112841577)
(-0.0009584963332 -5.658946981e-21 -0.002061312441)
(-0.0009528161167 5.071890771e-22 -0.002005566377)
(-0.000944480217 -2.779509208e-20 -0.001944827336)
(-0.0009330744826 -2.3500512e-20 -0.001878087457)
(-0.0009180312729 1.287101743e-19 -0.001804015199)
(-0.0008985475965 1.510233208e-19 -0.001720819028)
(-0.0008734431323 1.771529475e-19 -0.00162604317)
(-0.0008409127279 2.032012783e-19 -0.00151625422)
(-0.000798086138 2.237412758e-19 -0.001386527255)
(-0.0007400928599 2.190799573e-19 -0.001229540831)
(-0.0006571474197 1.282047084e-19 -0.001033744795)
(-0.0005245120655 -1.161403061e-19 -0.0007772700427)
(-0.0002685487249 -3.637066709e-20 -0.0004010225965)
(-3.47451835e-05 7.020921733e-19 -0.002922341906)
(-8.947818106e-05 -5.951520732e-19 -0.002921148442)
(-0.0001408040623 -4.831340274e-19 -0.00291901209)
(-0.0001940019816 -2.801045772e-19 -0.002915575017)
(-0.0002457387777 -3.099546828e-19 -0.002911053033)
(-0.0002959584959 -4.759651601e-19 -0.002905472453)
(-0.0003446263894 -1.141886055e-18 -0.002898838172)
(-0.0003916524857 -1.633254282e-18 -0.00289115989)
(-0.0004369841628 -1.998033409e-18 -0.002882443733)
(-0.0004805875096 -2.233319624e-18 -0.002872692112)
(-0.0005224406162 -2.020633373e-18 -0.002861906236)
(-0.0005625324988 -2.237137831e-18 -0.002850086684)
(-0.0006008609435 -2.318545197e-18 -0.002837233531)
(-0.0006374311644 -2.20536806e-18 -0.002823346809)
(-0.0006722546155 -2.301228848e-18 -0.002808426758)
(-0.0007053477313 -2.547129511e-18 -0.002792472774)
(-0.0007367306656 -2.587764146e-18 -0.002775484178)
(-0.000766426614 -2.256783667e-18 -0.002757459171)
(-0.0007944605371 -2.188328326e-18 -0.002738394013)