/*--------------------------------*- C++ -*----------------------------------*\
  =========                 |
  \\      /  F ield         | OpenFOAM: The Open Source CFD Toolbox
   \\    /   O peration     | Website:  https://openfoam.org
    \\  /    A nd           | Version:  7
     \\/     M anipulation  |
\*---------------------------------------------------------------------------*/
FoamFile
{
    version     2.0;
    format      ascii;
    class       volScalarField;
    location    "0.0015";
    object      generalizedNewtonian:nu;
}
// * * * * * * * * * * * * * * * * * * * * * * * * * * * * * * * * * * * * * //

dimensions      [0 2 -1 0 0 0 0];

internalField   nonuniform List<scalar> 
1167
(
15.38054868
15.21515701
14.93910902
14.49044356
13.92134886
13.23971891
12.45902614
11.59551688
10.66741135
9.696064124
8.705765263
7.722691119
6.772887333
5.879471559
5.060027237
4.325152746
3.678555314
15.6144475
15.44398568
15.15363007
14.68762034
14.09649219
13.3898526
12.58212574
11.69140828
10.73757869
9.74315391
8.733386128
7.735130582
6.774511839
5.874151759
5.050809484
4.314206167
3.667318092
3.107642489
2.628881948
2.222737286
1.880225611
1.592473489
1.351277091
1.149317659
0.980226477
0.8385703044
0.7197493008
0.6199190191
0.5358732541
0.464951219
0.4049532562
0.3540565076
0.3107563041
0.2738090419
0.2421844096
0.215030682
0.1916423832
0.1714322572
0.1539120773
0.1386749633
0.1253809825
0.1137454081
0.1035293238
0.09453152969
0.08658222558
0.07953760037
0.07327572755
0.0676923434
0.06269748305
0.05821072129
15.87048115
15.69433271
15.38816038
14.90301978
14.28768202
13.55353871
12.71635302
11.79584915
10.81384811
9.794324684
8.763602726
7.749088342
6.776887793
5.869089816
5.04157995
4.303151004
3.655982916
3.096867704
2.619077276
2.214079813
1.872722268
1.586054833
1.345844806
1.144754188
0.9764200258
0.8354103617
0.7171381965
0.6177718763
0.5341140138
0.4635160515
0.4037862994
0.3531114354
0.309994599
0.2731977249
0.2416964464
0.2146438307
0.1913384151
0.1711958211
0.1537307081
0.1385384818
0.1252810563
0.1136752225
0.1034833137
0.09450515493
0.08657172703
0.07953992053
0.07328840281
0.06771335213
0.0627251828
0.05824379749
16.14971487
15.96715823
15.64371944
15.13739379
14.49531022
13.73082528
12.86172355
11.90888976
10.89623449
9.849539851
8.796278737
7.764400083
6.779921312
5.864267374
5.032381324
4.292102031
3.644638146
3.086090687
2.609302422
2.205479201
1.865297004
1.579734342
1.340514629
1.140291075
0.9727081672
0.8323373504
0.7146062973
0.6156929995
0.5324130612
0.462129958
0.402660144
0.3521998288
0.3092599581
0.272608026
0.2412255777
0.2142704741
0.1910446197
0.170966959
0.1535548296
0.1384058159
0.1251836071
0.1136064578
0.1034379197
0.09447872965
0.08656066499
0.07954128326
0.07329983391
0.06773290996
0.0627512862
0.05827517801
16.4527223
16.26315228
15.92067311
15.39092599
14.71958659
13.92187194
13.01791417
12.03023479
10.98451795
9.908571554
8.831230925
7.780958975
6.783540954
5.859673166
5.023306935
4.281126955
3.633344003
3.07536574
2.599612111
2.196978257
1.857979571
1.573527099
1.335297583
1.135937379
0.9690964836
0.8293539065
0.7121532398
0.6136820609
0.5307698048
0.4607921265
0.4015738958
0.3513209423
0.3085516803
0.272039363
0.2407712979
0.2139100359
0.1907606627
0.1707454372
0.1533842709
0.138276845
0.125088556
0.1135390715
0.1033930931
0.09445221682
0.08654902417
0.07954171151
0.07331003001
0.0677510241
0.06277580059
0.05830486974
16.78025176
16.58298039
16.21952624
15.66393031
14.96053617
14.12652818
13.18441478
12.15924062
11.07829138
9.971175847
8.868258045
7.798584172
6.78766375
5.855373166
5.014433487
4.270279942
3.622145191
3.064747325
2.590041411
2.188605714
1.850796375
1.567450221
1.330203781
1.13170064
0.965589246
0.8264623742
0.7097795412
0.6117389158
0.5291845001
0.4595020243
0.4005269438
0.3504744783
0.3078692631
0.2714912872
0.2403332392
0.2135621878
0.1904863091
0.1705310834
0.1532189077
0.1381514824
0.1249958528
0.1134730675
0.1033488005
0.09442560171
0.08653679491
0.07954118058
0.07331898805
0.0677676949
0.06279872501
0.05833286963
17.13306039
16.92733371
16.54086871
15.95699795
15.21836235
14.34475244
13.36102278
12.29517558
11.17666476
10.03672582
8.906996507
7.817128137
6.792332054
5.851416346
5.00576687
4.259574237
3.611076133
3.054285493
2.580627787
2.180385947
1.843769174
1.561519238
1.325243672
1.127584009
0.9621886625
0.823665307
0.7074863329
0.6098638871
0.5276564726
0.458259296
0.3995188506
0.3496595693
0.30721223
0.2709634501
0.2399112161
0.2132267268
0.1902214011
0.1703237874
0.1530586682
0.1380296874
0.1249054821
0.1134083761
0.1033050216
0.09439887554
0.08652397039
0.07953968331
0.0733266998
0.06778291252
0.06282004773
0.05835916406
17.5118002
17.29661812
16.88487607
16.27008002
15.49287992
14.57629173
13.54744664
12.43753176
11.27883064
10.10438101
8.94689075
7.836314476
6.797349874
5.847652552
4.997230397
4.248989871
3.600158651
3.043992827
2.571388647
2.172338427
1.836906349
1.555741475
1.320425119
1.123592514
0.9588973512
0.8209636677
0.7052741789
0.6080571305
0.52618532
0.4570635701
0.398549274
0.3488758926
0.3065802905
0.2704556277
0.2395051321
0.2129035367
0.1899658522
0.170123494
0.1529035203
0.1379114481
0.1248174695
0.1133449936
0.103261748
0.0943720293
0.08651053999
0.07953720668
0.07333314949
0.06779665835
0.06283974737
0.05838372924
17.91721722
17.69135459
17.25196106
16.603069
15.7836571
14.82021843
13.74296767
12.58584911
11.38435483
10.1736433
8.987427182
7.855701312
6.802394327
5.843889205
4.988732596
4.238504115
3.589410082
3.03388528
2.562333518
2.164481122
1.830220526
1.55012426
1.315753679
1.119730119
0.9557179769
0.818357721
0.7031431893
0.6063190398
0.5247709767
0.4559146974
0.3976184525
0.3481233933
0.3059733934
0.2699677573
0.2391147669
0.2125925724
0.1897196624
0.1699302193
0.1527534898
0.1377967906
0.1247317794
0.1132829258
0.1032189869
0.09434506231
0.08649649458
0.07953373496
0.07333831905
0.06780890556
0.06285779282
0.05840653163
18.34954776
18.11165943
17.64214536
16.95568984
16.09010095
15.07564601
13.94658747
12.73934088
11.49257062
10.24395143
9.028140174
7.874923707
6.807241934
5.840002751
4.98021455
4.228137293
3.57883891
3.023974137
2.553478451
2.156821422
1.82372022
1.544675531
1.31123168
1.115998658
0.9526530228
0.8158487214
0.7010939844
0.6046502508
0.5234136611
0.4548127405
0.3967262237
0.3474020383
0.3053915405
0.2694998695
0.2387401676
0.2122938885
0.1894828917
0.1697440245
0.1526086473
0.1376858453
0.1246484627
0.1132222002
0.1031767534
0.09431797808
0.08648182568
0.07952924952
0.07334218459
0.06781961855
0.06287414212
0.0584275253
18.80748256
18.55627567
18.05399064
17.32631549
16.41076435
15.34123524
14.15651407
12.89655928
11.60253978
10.31459965
9.068497444
7.893628549
6.811646624
5.835848396
4.971657216
4.21787754
3.568437252
3.014256639
2.544837458
2.149367256
1.817409806
1.539403323
1.306863975
1.112400783
0.9497043856
0.81343807
0.6991274245
0.603050372
0.5221134955
0.4537578231
0.3958723825
0.3467117997
0.3048348026
0.2690523497
0.2383814813
0.2120076093
0.1892556736
0.1695650449
0.1524691017
0.1375786231
0.1245675854
0.113162874
0.1031350836
0.09429079133
0.08646652893
0.07952372781
0.07334470218
0.06782875166
0.06288874455
0.05844665594
19.28869861
19.02267848
18.48544116
17.71300603
16.74346434
15.61492697
14.37071667
13.05541767
11.71278815
10.38471105
9.107943228
7.911429552
6.815388761
5.831381666
4.963055048
4.207705132
3.558191133
3.004735613
2.536415012
2.142125676
1.8112951
1.534309273
1.302653031
1.10893875
0.9468718901
0.8111259824
0.697243991
0.6015197494
0.5208706973
0.452750296
0.3950572238
0.3460529815
0.3043034253
0.2686251565
0.2380388992
0.2117339518
0.1890382101
0.169393478
0.1523351031
0.1374752703
0.124489255
0.1131050281
0.1030940315
0.09426352898
0.08645060552
0.07951714803
0.07334583074
0.06783624865
0.06290153243
0.05846384709
19.79019156
19.50773685
18.93345536
18.11291843
17.08538682
15.89423588
14.5871446
13.21375206
11.82121398
10.45286812
9.145686824
7.92794948
6.818368801
5.826558847
4.954342452
4.197573895
3.548078739
2.995414271
2.528208531
2.135095024
1.805378583
1.529393152
1.298598679
1.105614346
0.9441561874
0.8089127352
0.6954451421
0.6000588269
0.5196856041
0.451790927
0.3942811303
0.3454259212
0.3037977419
0.2682185802
0.2377127163
0.2114732065
0.1888307789
0.1692295652
0.1522068095
0.1373759614
0.1244136191
0.1130487739
0.1030536712
0.09423622894
0.08643405962
0.07950948472
0.07334552083
0.06784204292
0.06291242949
0.05847901991
20.30725034
20.00649686
19.39356787
18.52136809
17.43225575
16.1753009
14.8028216
13.36937787
11.92603174
10.51753812
9.180707961
7.942621105
6.820214541
5.821114228
4.945355085
4.187394077
3.538060086
2.986271612
2.52020633
2.128267053
1.799660096
1.524655293
1.29470119
1.102427895
0.9415580522
0.8067989674
0.6937298848
0.5986678072
0.5185585369
0.4508794083
0.3935443058
0.3448309694
0.3033183449
0.267833035
0.2374033227
0.2112257546
0.1886337494
0.1690736733
0.1520844974
0.1372809551
0.1243408969
0.1129942842
0.1030141268
0.09420896672
0.08641692009
0.07950072377
0.0733437206
0.06784605081
0.06292132551
0.05849204081
20.83260519
20.51141431
19.85947267
18.93247887
17.77871217
16.45321297
15.01403789
13.51977054
12.02549094
10.57750686
9.212090536
7.954774631
6.820463832
5.814756654
4.935925306
4.177073771
3.528111835
2.977287646
2.512395063
2.121637066
1.794132172
1.520092614
1.290959669
1.099377199
0.9390765887
0.8047845434
0.6920982887
0.5973467674
0.5174897375
0.4500160736
0.3928471137
0.344268501
0.30286556
0.2674689044
0.2371111075
0.2109919742
0.188447491
0.1689262086
0.1519684806
0.1371905216
0.1242713191
0.1129417443
0.102975533
0.09418182327
0.08639921431
0.07949084281
0.07334036608
0.06784817959
0.06292811628
0.05850281317
21.35536796
21.01122333
20.32092806
19.33708597
18.11734881
16.72201795
15.21593007
13.6615608
12.11732136
10.63125509
9.238863472
7.963775439
6.81873472
5.807262806
4.925914325
4.166551962
3.518178064
2.968423522
2.504749473
2.115198213
1.788788088
1.515699063
1.287373035
1.096460741
0.9367107271
0.8028705199
0.6905505121
0.5960960196
0.5164804336
0.4492016535
0.3921902769
0.3437392174
0.3024399114
0.2671268466
0.2368367409
0.2107725181
0.1882726063
0.1687876363
0.1518592681
0.1371051327
0.1242052989
0.1128915007
0.1029381637
0.09415499441
0.08638105649
0.07947987359
0.07333540845
0.06784830334
0.0629326008
0.05851105803
21.85841976
21.48916579
20.76391207
19.72264262
18.43764508
16.97349375
15.40176743
13.79015525
12.19883129
10.67706323
9.259868944
7.968890622
6.814545625
5.798314736
4.915159737
4.155745751
3.508196045
2.959633751
2.49724386
2.108928848
1.783616338
1.511467741
1.283934949
1.093675491
0.9344586322
0.8010539947
0.6890855091
0.5949150094
0.5155296327
0.4484358733
0.3915737773
0.3432433684
0.3020416123
0.2668071026
0.2365804931
0.2105676974
0.1881095189
0.1686582898
0.1517571743
0.1370250913
0.124143118
0.1128438005
0.102902217
0.09412861683
0.08636251179
0.07946780666
0.0733287724
0.06784630661
0.06293466955
0.05851673184
22.31609732
21.92115055
21.16882574
20.0730597
18.72614564
17.19710445
15.56355931
13.89907024
12.26560347
10.7122652
9.27342902
7.968979218
6.807134262
5.787461129
4.903395516
4.144445744
3.498016345
2.950817455
2.489819291
2.102785041
1.778585833
1.507379373
1.280631359
1.091012214
0.9323147958
0.799331653
0.6877014464
0.5938030035
0.5146371328
0.4477190575
0.3909982987
0.3427820259
0.3016717108
0.2665107711
0.2363434884
0.2103786137
0.1879592511
0.1685391865
0.1516631716
0.1369513087
0.1240856148
0.1127993966
0.1028683446
0.09410322087
0.08634396696
0.07945486069
0.07332048277
0.06784199252
0.06293386816
0.05851907394
22.70265168
22.27902793
21.50955106
20.36594344
18.96521666
17.37993256
15.69228832
13.98147894
12.31226294
10.73328815
9.277362374
7.962700109
6.795695505
5.774171615
4.890192523
4.132328533
3.487410006
2.94181906
2.482361828
2.096685951
1.773638098
1.503395062
1.277432309
1.088448416
0.9302645617
0.7976913959
0.6863890325
0.592753545
0.5137975759
0.4470470211
0.3904604845
0.3423521765
0.3013280208
0.2662361596
0.2361244015
0.2102042301
0.1878209516
0.1684297363
0.151576856
0.1368835315
0.1240326587
0.1127582519
0.1028365691
0.09407885084
0.08632544852
0.07944101429
0.07331046782
0.06783529054
0.06293026044
0.05851848865
22.94181164
22.50744685
21.74113516
20.5619397
19.12081922
17.4932603
15.76551611
14.02078514
12.32649153
10.73085091
9.26504987
7.945518602
6.777078375
5.756211663
4.873983501
4.11831075
3.475633013
2.932142378
2.474520878
2.090386034
1.768603373
1.49939268
1.274254983
1.085927204
0.9282665258
0.7961061661
0.6851303837
0.5917546599
0.513003696
0.4464156598
0.3899584644
0.3419533623
0.3010110414
0.2659844036
0.2359248021
0.2100465088
0.1876965448
0.1683318839
0.1515001644
0.1368236526
0.1239860713
0.112722094
0.1028084974
0.09405695224
0.08630817405
0.07942715103
0.07329911963
0.06782588472
0.06292253942
0.05851234691
23.18798118
22.71047327
21.9433928
20.72113397
19.23551792
17.56446008
15.79942181
14.02555987
12.31177818
10.70537511
9.235170379
7.915407403
6.749150761
5.731645735
4.853148438
4.101077615
3.461645767
2.920958074
2.465651855
2.083387851
1.763104379
1.495079512
1.270872503
1.083274
0.9261849274
0.7944699167
0.6838423989
0.5907404633
0.5122034524
0.4457836194
0.3894595513
0.3415590372
0.3006993202
0.2657381379
0.2357305568
0.2098937931
0.1875766728
0.1682380655
0.151427006
0.1367668178
0.1239420478
0.1126880119
0.1027819781
0.09403601003
0.08629115104
0.07941270979
0.07328628018
0.06781413631
0.0629119717
0.05850351691
22.72082299
22.22477701
21.48585637
20.32489503
18.90648121
17.29625243
15.58362388
13.85258273
12.17296754
10.59444154
9.147067416
7.845847819
6.694570102
5.68907891
4.820125511
4.075581932
3.442073332
2.905972806
2.454187407
2.074617109
1.756397327
1.489941656
1.266928303
1.080242362
0.9238477707
0.7926634062
0.6824436961
0.5896550226
0.511359179
0.4451259951
0.388947398
0.3411596374
0.3003878103
0.2654954097
0.2355418655
0.2097476241
0.1874637786
0.1681512817
0.1513606994
0.1367165047
0.123904126
0.1126595495
0.1027605292
0.09401947527
0.08627765035
0.07940048884
0.07327365505
0.06779956207
0.0628942193
0.05848183752
22.44731383
22.07977701
21.37618869
20.1326685
18.64380561
16.99710134
15.28080379
13.57052051
11.92470243
10.38488966
8.975943889
7.70960994
6.588176728
5.607200067
4.757815844
4.028590488
3.406835103
2.879627002
2.434514073
2.059933547
1.745426962
1.481723848
1.260753401
1.075589188
0.9203260856
0.7899867726
0.6804025945
0.5880915707
0.5101568994
0.4441984359
0.3882302641
0.3406034927
0.2999556556
0.2651592981
0.2352806775
0.2095446679
0.1873063509
0.1680295569
0.151267023
0.1366448586
0.1238497368
0.1126185794
0.1027298136
0.09399631917
0.08625965586
0.07938544502
0.07325950366
0.06778455487
0.06287738109
0.05846361011
24.67651281
23.61562977
22.43326457
20.83704033
19.05625471
17.19283383
15.33336971
13.5397416
11.85269209
10.29782456
8.889041022
7.630776901
6.520610139
5.551416496
4.712974217
3.993201711
3.37924829
2.858303922
2.418132947
2.047412885
1.735874575
1.474439232
1.255200426
1.071352093
0.917087171
0.7875063926
0.6785012831
0.5866303306
0.5090318701
0.4433319425
0.3875617023
0.3400872794
0.2995571157
0.2648519909
0.2350445355
0.209363664
0.187168307
0.1679250502
0.1511887171
0.1365870005
0.1238077909
0.1125889391
0.1027095483
0.09398295404
0.08625090705
0.07937883397
0.07325164825
0.06777001425
0.06284759236
0.0584086689
)
;

boundaryField
{
    front_top
    {
        type            wedge;
    }
    front_middle
    {
        type            wedge;
    }
    front_bottom
    {
        type            wedge;
    }
    back_top
    {
        type            wedge;
    }
    back_middle
    {
        type            wedge;
    }
    back_bottom
    {
        type            wedge;
    }
    axis_top
    {
        type            symmetryPlane;
    }
    axis_middle
    {
        type            symmetryPlane;
    }
    axis_bottom
    {
        type            symmetryPlane;
    }
    wall_top
    {
        type            calculated;
        value           nonuniform 0();
    }
    wall_middle
    {
        type            calculated;
        value           nonuniform 0();
    }
    wall_bottom
    {
        type            calculated;
        value           nonuniform List<scalar> 
23
(
0.05616795744
0.05620323827
0.05623678892
0.05626861584
0.05629871494
0.05632707177
0.05635366152
0.0563784498
0.05640138924
0.05642242445
0.0564414755
0.05645846395
0.05647324611
0.05648573321
0.05649560984
0.05650287702
0.05650662357
0.05650746164
0.05650208808
0.05649428465
0.05647080193
0.0564522902
0.05638378646
)
;
    }
    inlet
    {
        type            calculated;
        value           nonuniform 0();
    }
    outlet
    {
        type            calculated;
        value           nonuniform List<scalar> 
50
(
25.0274621
23.9636585
22.76319523
21.12693141
19.30148118
17.39239757
15.49031673
13.65949687
11.94175872
10.3625727
8.935119011
7.662950772
6.542700886
5.566361327
4.722953753
3.999785905
3.383546916
2.861087622
2.419924294
2.048559785
1.736606087
1.474905374
1.255498193
1.071543236
0.9172110118
0.7875879199
0.6785560945
0.5866681792
0.5090588712
0.4433518832
0.3875769045
0.3400991878
0.2995666428
0.2648597152
0.235050827
0.2093687721
0.1871724099
0.1679282827
0.1511911878
0.1365888026
0.1238090082
0.1125896498
0.1027098283
0.09398287958
0.08625055735
0.07937829503
0.07325102059
0.0677694262
0.0628471949
0.05840853435
)
;
    }
    procBoundary0to1
    {
        type            processor;
        value           nonuniform List<scalar> 
51
(
15.16785249
15.00700371
14.7438638
14.31108337
13.76196415
13.1032462
12.34707495
11.50805819
10.60331413
9.65324815
8.681017547
7.712028944
6.772187458
5.885110297
5.069208004
4.335907391
3.689601764
3.118345175
3.118345175
2.63865156
2.231409414
1.887777972
1.598964673
1.356794475
1.153971212
0.9841241802
0.8418152782
0.7224375415
0.6221341972
0.5376913708
0.4664369881
0.406162155
0.3550360804
0.3115460901
0.2744428427
0.2426901499
0.215431377
0.1919569292
0.1716765945
0.1540991768
0.1388154291
0.1254834992
0.1138170804
0.1035759587
0.0945578795
0.08659217308
0.07953431642
0.07326179388
0.06766986566
0.06266816724
0.05817592944
)
;
    }
}


// ************************************************************************* //
