/*--------------------------------*- C++ -*----------------------------------*\
  =========                 |
  \\      /  F ield         | OpenFOAM: The Open Source CFD Toolbox
   \\    /   O peration     | Website:  https://openfoam.org
    \\  /    A nd           | Version:  7
     \\/     M anipulation  |
\*---------------------------------------------------------------------------*/
FoamFile
{
    version     2.0;
    format      ascii;
    class       volTensorField;
    location    "0.0015";
    object      grad(U);
}
// * * * * * * * * * * * * * * * * * * * * * * * * * * * * * * * * * * * * * //

dimensions      [0 0 -1 0 0 0 0];

internalField   nonuniform List<tensor> 
1167
(
(-0.2539090425 -1.44179754e-12 0.1395132295 -3.409821323e-12 -0.4143493143 0 -0.008429863574 -1.93504132e-13 1.322451572)
(-0.3391880445 -1.207898445e-12 0.3284894184 1.311042483e-13 -0.362911734 0 -0.02199099909 -7.249881159e-13 1.324325688)
(-0.3382707764 -4.366747185e-13 0.5416391522 3.419072656e-13 -0.3481986133 6.898779112e-12 -0.03466332745 -5.469977035e-13 1.328243256)
(-0.351287338 -2.492151681e-13 0.7691533019 3.178668025e-13 -0.3474473971 0 -0.04747066681 -2.147401413e-13 1.3339049)
(-0.3593051503 -2.472494461e-13 1.017033705 3.016714275e-13 -0.3489623882 0 -0.05996061733 1.142105226e-13 1.341159712)
(-0.3674595845 -2.165308947e-13 1.293053422 2.928898961e-13 -0.351258209 0 -0.07196139949 1.199279179e-13 1.349809083)
(-0.3768653388 -1.52836916e-13 1.607474446 2.779840177e-13 -0.3541368229 0 -0.08345780275 2.120834266e-13 1.359568744)
(-0.387344914 -9.63436154e-14 1.973440576 2.573866781e-13 -0.3575094725 0 -0.09448621526 2.428323782e-14 1.370133403)
(-0.3985026359 -3.577440468e-13 2.408221373 2.370146894e-13 -0.3612880141 2.397067081e-12 -0.1049410138 -1.423521482e-13 1.381224557)
(-0.4100475252 -3.784392439e-13 2.934166821 2.734857606e-13 -0.3653782335 0 -0.1148206338 8.349383176e-14 1.39248562)
(-0.4218469368 -1.469537206e-13 3.58009644 2.624108609e-13 -0.3697071187 0 -0.124181534 1.381932117e-13 1.403467844)
(-0.4336931952 -8.210877906e-14 4.382719076 2.547860296e-13 -0.3742184911 0 -0.1330841488 3.566508127e-14 1.413717965)
(-0.4452339241 -1.466058979e-13 5.387833206 2.374261085e-13 -0.3788520801 0 -0.1416150739 -4.418106142e-14 1.422803277)
(-0.4560667334 -2.653014758e-13 6.651382059 2.403938146e-13 -0.383539494 1.733544128e-12 -0.1498798758 -1.500711922e-13 1.430311)
(-0.4658279513 -2.948117471e-13 8.240469139 2.406173117e-13 -0.3882071904 0 -0.1579767393 -1.285073545e-13 1.435798357)
(-0.4742244271 -2.036333005e-13 10.23447388 2.446381245e-13 -0.392783582 -1.595601525e-12 -0.1659738615 -1.374260281e-13 1.438741767)
(-0.4808942215 -1.303791612e-13 12.72630702 2.362368285e-13 -0.3972019459 0 -0.1739078464 -2.265563504e-13 1.438515434)
(-0.2362508469 -1.746662755e-13 0.1370400562 8.601981127e-13 -0.3854610736 -6.547496343e-11 -0.008726494323 1.316864538e-12 1.274319123)
(-0.3158198509 4.420287277e-14 0.3228798922 4.431596725e-13 -0.3376487401 0 -0.0227461524 5.392059426e-13 1.276309088)
(-0.3155108762 -1.31612553e-13 0.5327736936 1.751643134e-13 -0.324112191 -6.898779112e-12 -0.03580214515 3.91210441e-13 1.28046142)
(-0.3283331281 -7.843568202e-13 0.7571020958 2.424198182e-13 -0.3236764299 0 -0.04905019372 2.154478027e-13 1.286475982)
(-0.3366596128 -5.567823739e-13 1.00198297 4.253072585e-13 -0.3253905636 -4.051298909e-12 -0.06201512289 1.585316471e-13 1.294241094)
(-0.3453159869 -1.820648474e-13 1.275335824 3.669444436e-13 -0.3278933213 0 -0.07449390148 9.838687794e-14 1.303473215)
(-0.3552207095 1.191988251e-14 1.587576983 3.510996057e-13 -0.3309931748 0 -0.0864291971 7.141458689e-14 1.313946298)
(-0.3662598687 2.484248623e-13 1.951923961 2.754489012e-13 -0.3345863357 0 -0.09787905686 8.044004267e-14 1.325268009)
(-0.3781116965 -2.923832686e-13 2.385663692 2.177023814e-13 -0.338604086 -2.397067081e-12 -0.1088212098 1.258448193e-13 1.337102875)
(-0.3903893143 -6.024991322e-13 2.911329666 2.734857606e-13 -0.3429548515 2.205113534e-12 -0.1192095514 -8.169432655e-14 1.349078501)
(-0.4028419614 -2.91582512e-13 3.557908638 2.86448497e-13 -0.3475577236 0 -0.1290647299 -5.342632262e-14 1.360746149)
(-0.4151772925 -8.858162813e-15 4.362177939 2.77350106e-13 -0.3523412388 0 -0.1384551237 -2.968085782e-14 1.371623939)
(-0.4270362571 1.347766228e-13 5.369969144 2.472077085e-13 -0.3572318297 -1.821156068e-12 -0.1474628964 3.456371751e-14 1.381225263)
(-0.4380511885 -1.665387799e-14 6.637295129 2.226182156e-13 -0.3621538519 0 -0.156164686 -2.320996504e-14 1.389070452)
(-0.4478745963 -1.180791355e-13 8.23140813 2.187430107e-13 -0.3670312044 0 -0.1646222677 -6.516719773e-14 1.394668769)
(-0.4562306138 -1.9331476e-14 10.23190854 2.10357623e-13 -0.3717901093 0 -0.1728765373 -1.151244202e-13 1.397484133)
(-0.4626639035 -1.81045153e-13 12.73193491 1.986194991e-13 -0.3763644717 0 -0.1809996732 -9.912995459e-14 1.396929502)
(-0.4663860156 -3.330388008e-13 15.83966407 2.078127937e-13 -0.3806718401 0 -0.1891252199 -1.055582113e-13 1.392370961)
(-0.4667251058 -2.386291146e-13 19.68028461 2.112814495e-13 -0.3846088574 0 -0.1972895764 -1.243201923e-13 1.38296519)
(-0.4629643776 -1.646392748e-13 24.39770321 2.101817051e-13 -0.3880766574 0 -0.2054245665 -1.56138382e-13 1.367709491)
(-0.4539639242 -1.065461677e-13 30.15592063 2.068475134e-13 -0.3909595565 0 -0.2135395936 -1.573602001e-13 1.345525981)
(-0.438627691 -8.024030083e-14 37.14068581 2.033747976e-13 -0.3931172973 1.356715262e-12 -0.2215788293 -1.891162854e-13 1.315187362)
(-0.4158555952 -6.210474076e-14 45.56052427 1.971330577e-13 -0.394406874 0 -0.2294016697 -1.459432228e-13 1.275423071)
(-0.3844099754 -4.271514404e-14 55.64726286 1.920624725e-13 -0.3946700287 0 -0.2368820791 -1.086639899e-13 1.225018854)
(-0.3432379622 -4.636883158e-14 67.656295 1.880687662e-13 -0.3937418314 0 -0.2438060753 -7.400225788e-14 1.162801809)
(-0.2913672457 -6.850735273e-14 81.86605797 1.832055641e-13 -0.3914605401 0 -0.2499859422 -8.341084673e-14 1.087794441)
(-0.2281127629 1.529365575e-14 98.57726654 1.787048088e-13 -0.387665609 0 -0.2552065197 -9.441463472e-14 0.999211562)
(-0.1530975854 1.165248111e-13 118.1112693 1.71473873e-13 -0.3822163846 0 -0.259220455 -1.015810142e-13 0.8966117373)
(-0.06616871804 2.08885868e-13 140.8080219 1.639746086e-13 -0.3749883622 0 -0.2617982979 -1.129833557e-13 0.7799522548)
(0.03233506219 2.212450465e-13 167.0234902 1.537749335e-13 -0.3658825915 1.230199468e-12 -0.2626809756 -1.262040273e-13 0.6495801059)
(0.1416548804 9.742797772e-14 197.1262373 1.444728288e-13 -0.3548341541 0 -0.2616893743 -1.168841647e-13 0.5063545724)
(0.2605058858 8.361255255e-14 231.494399 1.401724839e-13 -0.3418138243 0 -0.2586700747 -1.106851268e-13 0.3515971076)
(0.3871371078 1.540585591e-13 270.511665 1.342709669e-13 -0.3268382611 0 -0.2534684982 -1.068607424e-13 0.1872160169)
(0.5194441389 1.643798791e-13 314.5632512 1.273545619e-13 -0.3099664862 0 -0.2460222221 -1.033646044e-13 0.01563407372)
(0.6547616965 1.680483419e-13 364.0324454 1.223498268e-13 -0.2913027424 0 -0.2363233198 -1.009776447e-13 -0.1603092684)
(0.7898520176 2.192983759e-13 419.2954825 1.162886144e-13 -0.2710010673 0 -0.2244055217 -9.725771145e-14 -0.3372195113)
(0.9211590603 2.711797713e-13 480.7172874 1.085695661e-13 -0.2492665639 0 -0.2103922652 -9.446525576e-14 -0.5111612808)
(1.044853641 3.252774162e-13 548.6491892 1.003484462e-13 -0.2263486212 0 -0.1944728296 -9.43086494e-14 -0.6778315071)
(1.156720305 3.296023403e-13 623.4252921 9.33655103e-14 -0.2025405954 1.202594749e-12 -0.1769019049 -9.864825763e-14 -0.8326703428)
(1.252245109 3.321136834e-13 705.3587009 8.613557381e-14 -0.1781779079 0 -0.1579989697 -8.153805913e-14 -0.9707328966)
(1.326684116 4.47081449e-13 794.7392695 7.834626694e-14 -0.1536345551 0 -0.1381436456 -6.434189132e-14 -1.086786543)
(1.375097679 5.535453963e-13 891.8316827 6.909185764e-14 -0.129319348 0 -0.1177693767 -6.792843566e-14 -1.175381678)
(1.39238646 5.571614695e-13 996.8741259 5.923185239e-14 -0.1056721008 0 -0.09735251512 -8.428781869e-14 -1.230900258)
(1.37341342 5.847725258e-13 1110.078263 4.993179624e-14 -0.08315962234 0 -0.07740876918 -7.323114051e-14 -1.247606475)
(1.313268615 5.860581444e-13 1231.630369 4.028669163e-14 -0.06226926744 0 -0.05849217664 -6.591629839e-14 -1.219738303)
(1.207308759 4.955240082e-13 1361.692899 3.200094548e-14 -0.04349879717 3.069692569e-13 -0.04118176319 -5.33318199e-14 -1.14155577)
(1.048715582 4.760794282e-13 1500.409086 2.538221772e-14 -0.02735117166 0 -0.02606365741 -3.620876561e-14 -1.007285147)
(0.8224523987 5.244985101e-13 1647.91774 1.836389836e-14 -0.01439099871 0 -0.01378083737 -2.260638427e-14 -0.8111491215)
(0.5205773941 5.647030066e-13 1804.397216 1.122563162e-14 -0.005386704877 0 -0.005160255354 -1.159393897e-14 -0.5473952855)
(0.2540463807 6.060726927e-13 1970.20431 3.825148425e-15 -0.0009595396124 0 -0.000911999941 -3.709899218e-15 -0.2101485757)
(-0.2180511682 5.398268449e-13 0.1344286032 5.445923243e-12 -0.3556592615 0 -0.008979955025 4.477538064e-14 1.224668216)
(-0.2917942175 2.109085447e-13 0.3169481932 1.348598387e-12 -0.3116017811 0 -0.02338665124 1.170944568e-13 1.226751973)
(-0.2920606502 1.374038837e-13 0.5233673069 8.741372948e-13 -0.2993200693 0 -0.03678435995 2.890432932e-13 1.231129644)
(-0.3045626752 1.444259453e-13 0.7442681563 5.299841434e-13 -0.2991828237 -5.066079466e-12 -0.05045836022 2.789859622e-13 1.237527782)
(-0.3131468263 -3.430507947e-14 0.9859589543 4.243181719e-13 -0.3010678028 4.051298909e-12 -0.06384205377 -1.959945963e-13 1.245776743)
(-0.3223459847 -5.953388873e-14 1.256457985 3.561274872e-13 -0.3037557937 0 -0.07674551611 -1.580390572e-13 1.255563668)
(-0.3328332525 -1.229392971e-13 1.566323095 3.163516035e-13 -0.3070758283 2.965162856e-12 -0.08910160571 -2.201370548e-13 1.266672797)
(-0.3443908195 -2.043591361e-13 1.928948433 2.960914418e-13 -0.3108979014 0 -0.1009306325 -1.533682292e-14 1.278735572)
(-0.3568176447 -1.830645865e-14 2.361653868 2.896846204e-13 -0.3151452761 -2.397067081e-12 -0.1122920264 1.578575376e-13 1.291326412)
(-0.3697389999 -4.072592612e-14 2.887095349 2.438760818e-13 -0.3197398338 0 -0.1231395351 -7.273492196e-14 1.304028921)
(-0.3827974833 -2.521526119e-13 3.53440267 2.45384202e-13 -0.3245958315 2.051211615e-12 -0.1334742426 -2.150478245e-13 1.316378604)
(-0.3956531078 -2.669880387e-13 4.340468712 2.453843311e-13 -0.3296332362 1.925467854e-12 -0.1433403214 -2.15854329e-13 1.327867459)
(-0.4079217528 -1.517650319e-13 5.351202786 2.480969448e-13 -0.3347707541 0 -0.1527963929 -8.319188339e-14 1.337973613)
(-0.4192279351 -5.230261688e-14 6.622678397 2.327757007e-13 -0.3399259646 0 -0.161903752 2.055264134e-14 1.346177477)
(-0.429270827 -9.329728027e-14 8.22224944 2.244141258e-13 -0.3450183813 0 -0.1707036211 3.433077383e-14 1.35195507)
(-0.4377189974 -1.320441459e-13 10.22964637 2.165904414e-13 -0.349975916 -1.595601525e-12 -0.1792326546 7.173881355e-14 1.354777878)
(-0.4439850757 -1.507272019e-13 12.73815502 2.129140843e-13 -0.3547238027 -3.081611623e-12 -0.1876150775 1.592964007e-13 1.354122546)
(-0.4474163361 -1.32810348e-13 15.85635769 2.100002968e-13 -0.359169445 0 -0.1959401812 5.479234777e-14 1.349366018)
(-0.4475326787 -1.054427038e-13 19.70995874 2.070274606e-13 -0.3632173384 0 -0.2041542485 -6.92799715e-15 1.339704489)
(-0.4435855458 -6.205335047e-14 24.44319385 2.018850588e-13 -0.3667769163 0 -0.2122541693 -4.502651365e-14 1.324233027)
(-0.4345025191 -2.891365748e-16 30.22049195 1.960319572e-13 -0.3697346514 0 -0.2202509541 -6.665724411e-14 1.301981797)
(-0.4193341617 -5.488573209e-14 37.2280256 1.861508733e-13 -0.3719612071 0 -0.2280215414 -7.899599261e-14 1.271830293)
(-0.3970216321 -1.150463828e-13 45.67447711 1.847715788e-13 -0.3733244057 0 -0.2354725893 -8.882164891e-14 1.232641646)
(-0.3664943668 -6.662167016e-14 55.79172421 1.818191407e-13 -0.3736756897 0 -0.2424950599 -9.596511294e-14 1.183283576)
(-0.3268120358 -2.788317665e-14 67.83502572 1.760778046e-13 -0.3728679064 0 -0.2488856538 -1.06710585e-13 1.122704115)
(-0.2770371745 7.128474363e-15 82.08254902 1.726120451e-13 -0.3707515939 0 -0.2544636109 -1.28804218e-13 1.050037888)
(-0.2165660647 2.845821124e-14 98.83447334 1.663803392e-13 -0.3671804637 6.310128422e-13 -0.2589970954 -1.676109111e-13 0.9645784028)
(-0.1450369172 5.281565009e-14 118.4112552 1.611000088e-13 -0.3620262537 0 -0.2622881006 -1.44111207e-13 0.8659499682)
(-0.06238681296 8.07712507e-14 141.1518265 1.548985233e-13 -0.3551749222 1.239188186e-12 -0.264141568 -1.274683931e-13 0.7541013293)
(0.03105412955 7.552419715e-14 167.4109037 1.483687835e-13 -0.3465405339 0 -0.2643206299 -6.385758858e-14 0.6294038742)
(0.1346467443 8.052905027e-14 197.5556843 1.432788384e-13 -0.3360644742 0 -0.2626495347 -5.266136923e-14 0.4926827911)
(0.247140402 1.138309801e-13 231.9626253 1.372027279e-13 -0.3237213421 0 -0.258982751 -6.116476501e-14 0.3451569415)
(0.3668810556 1.438158692e-13 271.0135219 1.313134566e-13 -0.3095305455 0 -0.2532072459 -6.065558569e-14 0.1886312603)
(0.491933313 1.713900687e-13 315.0919018 1.249961441e-13 -0.2935493308 0 -0.245267328 -5.356301325e-14 0.02537302554)
(0.6197704472 2.005923204e-13 364.5791306 1.182322845e-13 -0.2758768697 0 -0.2351578507 -5.812610375e-14 -0.1419638582)
(0.7473814274 2.350761906e-13 419.8491886 1.121774008e-13 -0.2566601926 0 -0.2229131159 -5.924015723e-14 -0.3101631312)
(0.8714779376 2.735031508e-13 481.2649243 1.056352535e-13 -0.2360916775 0 -0.2086709536 -5.730765518e-14 -0.4755445559)
(0.9884476992 3.149293265e-13 549.1759003 9.682744812e-14 -0.2144056484 0 -0.1926222931 -5.2395071e-14 -0.6341138222)
(1.094320775 3.12951309e-13 623.9142926 8.98422835e-14 -0.1918779997 0 -0.1750150264 -4.412179638e-14 -0.781555843)
(1.184845424 3.063808415e-13 705.7911172 8.290181507e-14 -0.1688242092 0 -0.1561591733 -4.708098056e-14 -0.9131987856)
(1.255538079 3.793910728e-13 795.094309 7.628452307e-14 -0.145596245 0 -0.1364225511 -4.768599914e-14 -1.024091582)
(1.301699428 5.217332578e-13 892.0867309 6.761553589e-14 -0.1225793095 -3.023506932e-13 -0.1162227085 -2.889818892e-14 -1.109062802)
(1.318470507 5.377679545e-13 997.0047981 5.745489682e-14 -0.100188861 3.032670842e-13 -0.09601647898 -1.703026102e-14 -1.162748162)
(1.300964581 4.904076654e-13 1110.058616 4.93373701e-14 -0.07886631012 0 -0.07631026593 -8.864000704e-15 -1.179661941)
(1.244506099 5.094158027e-13 1231.433186 4.133116142e-14 -0.05907299676 0 -0.05764136786 4.316681212e-15 -1.154317822)
(1.14463975 5.023964302e-13 1361.289517 3.364970614e-14 -0.04128050061 0 -0.04057130362 5.400151366e-16 -1.081242115)
(0.9948056473 5.141760711e-13 1499.769182 2.643667186e-14 -0.02596655226 0 -0.02567315936 -3.816345934e-18 -0.9548690163)
(0.7805997082 5.491511488e-13 1647.009484 1.904544511e-14 -0.0136686376 -1.550897478e-13 -0.01357227798 1.771753038e-15 -0.7695779741)
(0.494387017 5.861588646e-13 1803.187024 1.153983505e-14 -0.005119695507 0 -0.005081574275 5.282845467e-16 -0.5197757045)
(0.2414939965 6.225887987e-13 1968.65543 3.916166358e-15 -0.0009129396192 0 -0.0008979623787 8.943194719e-17 -0.1997429679)
(-0.1994029993 -3.596334952e-13 0.131715779 1.160917778e-12 -0.3250663704 0 -0.009173430311 -7.319310112e-13 1.173628656)
(-0.2671568438 -4.194958518e-13 0.3107326028 7.07416673e-13 -0.284893973 0 -0.02389528877 -4.853879576e-13 1.175799355)
(-0.2679336081 -3.72791621e-13 0.5133964765 5.701261547e-13 -0.2738926874 0 -0.03765742201 -4.252285683e-13 1.180413091)
(-0.2801025166 1.63258703e-13 0.7306522079 5.169973674e-13 -0.2740262441 0 -0.0517295366 -2.35041999e-13 1.187188505)
(-0.2889680827 1.627018558e-13 0.9690120303 2.734824581e-13 -0.2760850305 0 -0.06544460962 -1.990309803e-13 1.195878496)
(-0.298638361 -1.250539942e-13 1.236528037 2.662635419e-13 -0.2789551222 0 -0.07869364627 -1.525168844e-13 1.206208105)
(-0.3096851672 -2.856713911e-13 1.543819921 2.309294314e-13 -0.2824770445 0 -0.09146638405 -1.16338706e-13 1.217900011)
(-0.3217686858 -4.739531858e-13 1.90455724 2.664177896e-13 -0.2865215555 0 -0.1036785464 -9.162724136e-14 1.230644669)
(-0.3347047726 -1.443445291e-13 2.336199443 2.850028488e-13 -0.2909896406 0 -0.1153992832 -9.823939442e-14 1.243964994)
(-0.348208336 1.330679574e-13 2.861455356 2.449527974e-13 -0.2958118897 0 -0.1266531315 -1.090787013e-14 1.257381795)
(-0.3618533114 -1.199925618e-14 3.509596068 2.123324523e-13 -0.3009052037 0 -0.1374167557 -3.487196767e-14 1.270396621)
(-0.3752277765 -2.91181804e-13 4.317628053 2.07777537e-13 -0.3061828547 0 -0.1477131633 -6.156340134e-14 1.282478506)
(-0.3879273433 -3.612079837e-13 5.331529839 2.231983267e-13 -0.3115561528 0 -0.1575907917 -9.340468649e-14 1.293080039)
(-0.399610531 -2.629018031e-13 6.60744883 2.285434153e-13 -0.3169375214 1.733544128e-12 -0.1670828329 -6.274084547e-14 1.301653824)
(-0.4099715236 -2.315283371e-13 8.212791152 2.27654763e-13 -0.3222469465 0 -0.1762176349 -5.140006929e-14 1.307668239)
(-0.4185353652 -3.008673988e-13 10.22729552 2.274978737e-13 -0.3274085424 -1.595601525e-12 -0.1850892289 -6.173604477e-14 1.31063554)
(-0.424715878 -1.310148397e-13 12.74446677 2.362368285e-13 -0.3323337837 0 -0.1937986191 -4.607173066e-14 1.310059356)
(-0.4281155752 4.886562896e-14 15.87329737 2.202086446e-13 -0.3369297551 0 -0.2023420927 -4.717449897e-14 1.305300422)
(-0.4282642005 -4.782968006e-15 19.73984021 2.09154455e-13 -0.3411147068 0 -0.2106644774 -4.982992702e-14 1.295620964)
(-0.4242995691 -2.216557616e-14 24.4886487 1.998108973e-13 -0.3447970156 0 -0.2188015203 -4.952438823e-14 1.2802324)
(-0.415382689 -2.396532925e-14 30.28453774 1.940040404e-13 -0.3478640928 0 -0.2267454645 -4.261964102e-14 1.258212129)
(-0.400684115 -2.512943632e-14 37.31398721 1.86813332e-13 -0.3502033669 0 -0.2343650174 -2.479363142e-14 1.228547783)
(-0.3791018486 -1.91534304e-14 45.78590905 1.815185581e-13 -0.3516899844 0 -0.2415756666 -4.595666179e-14 1.190241426)
(-0.3497171852 3.768725861e-15 55.93227881 1.7477685e-13 -0.3521840767 0 -0.2482386855 -5.958883003e-14 1.142241925)
(-0.3117075485 4.080230376e-14 68.00815424 1.697667722e-13 -0.3515527312 0 -0.2541985914 -6.892800322e-14 1.083596723)
(-0.2642412066 9.593926047e-14 82.29139343 1.626416742e-13 -0.3496586647 0 -0.2592952032 -7.551599468e-14 1.013513546)
(-0.2067424228 5.394482918e-14 99.08166908 1.534396462e-13 -0.3463712558 0 -0.2632958593 -7.932059542e-14 0.9313822079)
(-0.1388051201 4.980742016e-15 118.6987451 1.507261446e-13 -0.3415714399 0 -0.2660148507 -8.348427682e-14 0.8368892478)
(-0.06045758741 -2.148952292e-14 141.4805965 1.446122932e-13 -0.3351538835 0 -0.2672573953 -8.363231658e-14 0.7299704752)
(0.02794526064 7.454574031e-15 167.7806816 1.435633168e-13 -0.3270433711 6.15099734e-13 -0.2668349988 -8.322463928e-14 0.6109973882)
(0.1258352718 9.050539908e-14 197.9649549 1.37905882e-13 -0.3171880462 0 -0.2645874979 -8.042821742e-14 0.4807545429)
(0.2320516138 1.071699101e-13 232.4083388 1.318571671e-13 -0.3055667449 0 -0.2603586616 -7.507329324e-14 0.3403963416)
(0.3450634514 1.304556631e-13 271.4908828 1.265814401e-13 -0.2921994823 0 -0.2540677605 -6.94270679e-14 0.1916112392)
(0.4630599766 1.570956154e-13 315.594522 1.208689129e-13 -0.2771411333 0 -0.2456757861 -6.420863457e-14 0.03650564918)
(0.5836364027 1.859143852e-13 365.0987083 1.141147423e-13 -0.2604859631 0 -0.2351789424 -5.967666452e-14 -0.122431308)
(0.7040117195 2.164954321e-13 420.3753446 1.080661872e-13 -0.2423741797 0 -0.2226233715 -5.426755728e-14 -0.2821515727)
(0.8211605606 2.484480184e-13 481.7855561 1.015272159e-13 -0.2229854562 0 -0.2081425681 -4.791423483e-14 -0.4392217061)
(0.931670539 2.807898572e-13 549.6771047 9.506694906e-14 -0.202539402 0 -0.1919254488 -4.069723891e-14 -0.5899486727)
(1.031803871 3.11994808e-13 624.3801638 8.778706786e-14 -0.1812950682 0 -0.1742174193 -3.306883131e-14 -0.7302459252)
(1.117560308 3.444286084e-13 706.2038233 8.054999053e-14 -0.159548715 0 -0.1553230791 -3.751827358e-14 -0.8557032554)
(1.184700702 3.814240535e-13 795.434171 7.333917469e-14 -0.1376311195 0 -0.1356008908 -4.209666895e-14 -0.961640612)
(1.228756652 4.428815294e-13 892.3322287 6.554868545e-14 -0.115904951 0 -0.1154515048 -3.516114675e-14 -1.043150372)
(1.245130671 4.834273574e-13 997.1326931 5.715873756e-14 -0.09476224455 0 -0.09532847359 -9.144180877e-15 -1.095114117)
(1.229185863 5.042396832e-13 1110.044291 4.889155049e-14 -0.0746192348 0 -0.07573098198 -5.759165632e-15 -1.112326584)
(1.176446319 5.509509621e-13 1231.250744 4.073432154e-14 -0.05591204224 0 -0.0571881998 -2.222540547e-17 -1.089579469)
(1.082651375 5.122109766e-13 1360.911497 3.200094548e-14 -0.03908717664 3.069692569e-13 -0.04024521275 3.036461746e-15 -1.021596873)
(0.9414994738 4.71053339e-13 1499.166391 2.538221772e-14 -0.0245975643 0 -0.02546592133 -5.399149545e-16 -0.9030343119)
(0.7392180195 5.225100738e-13 1646.151189 1.85532169e-14 -0.01295449193 0 -0.01346228134 -1.810655252e-15 -0.7284762437)
(0.4684942776 5.716032085e-13 1802.040771 1.129228084e-14 -0.004855739958 0 -0.005040443951 -1.653461731e-15 -0.4924720401)
(0.2290853034 6.086507537e-13 1967.185691 3.829938842e-15 -0.0008668756556 0 -0.0008907134526 -6.808773049e-16 -0.1894569813)
(-0.1803972459 -8.712288454e-14 0.1288821773 5.245110443e-13 -0.2939633399 0 -0.009329525724 -3.016067441e-13 1.12138426)
(-0.2419171548 -2.662148153e-13 0.3041821353 2.526488118e-13 -0.2576996477 0 -0.02433707451 -8.450784584e-13 1.123676911)
(-0.2431372697 -3.320499965e-13 0.5028809775 2.947476427e-13 -0.2479086259 0 -0.03843624382 -4.217556253e-13 1.128554305)
(-0.2550422801 -2.313492922e-13 0.7163476252 2.980774295e-13 -0.2482818216 0 -0.05282164047 -3.274704064e-13 1.135665415)
(-0.2642233117 -1.855725528e-13 0.9511871446 2.700206548e-13 -0.250524608 0 -0.06684005095 -6.010245072e-14 1.144752602)
(-0.2742492067 -2.111378554e-13 1.215563836 2.58358843e-13 -0.2535753334 0 -0.08040467243 -5.737917329e-14 1.155597395)
(-0.2857938137 -2.363729457e-13 1.520172807 2.526469328e-13 -0.257272068 0 -0.09353083429 1.280230715e-14 1.167834407)
(-0.2984761769 -2.360285026e-13 1.87886838 2.515809636e-13 -0.2615245207 0 -0.1061174336 -5.922420984e-14 1.181159064)
(-0.3119086589 -1.844470579e-13 2.309368052 2.4930434e-13 -0.2662132812 0 -0.1181713002 -1.230222227e-13 1.195136794)
(-0.325891533 -1.577903569e-13 2.834477285 2.395692194e-13 -0.2712517205 0 -0.1297668159 -6.465233689e-14 1.20922445)
(-0.3400640936 -1.491319358e-13 3.483542273 2.323638158e-13 -0.2765653066 0 -0.1409119624 1.328472446e-13 1.222869194)
(-0.3539419787 -1.455766709e-13 4.29367551 2.251706793e-13 -0.2820667116 0 -0.1516090487 6.834426591e-14 1.235513187)
(-0.3671161227 -1.536121078e-13 5.310949375 2.205306176e-13 -0.2876618797 0 -0.1618723739 -3.228031754e-14 1.246587849)
(-0.3792452274 -1.411574664e-13 6.591538731 2.16693016e-13 -0.2932632252 1.733544128e-12 -0.1717280678 -9.179882207e-14 1.255536101)
(-0.3898849069 -9.4095572e-14 8.202804562 2.098312584e-13 -0.2987875166 0 -0.1812453564 -1.144659914e-13 1.261860597)
(-0.3985321815 -1.455201812e-13 10.22453916 2.010083953e-13 -0.3041441449 -1.595601525e-12 -0.1905210334 -1.472962887e-13 1.265095466)
(-0.4048048484 -1.82760709e-13 12.75051759 2.038859252e-13 -0.3092419222 0 -0.1995713068 -2.291748922e-13 1.26471519)
(-0.4083959648 -1.240211714e-13 15.89003893 2.005211167e-13 -0.3139981842 0 -0.2083391354 -1.870672894e-13 1.26011003)
(-0.408732322 -1.000725967e-13 19.76935545 1.963924883e-13 -0.3183362126 0 -0.2168374123 -1.300532576e-13 1.250619458)
(-0.4049627362 -7.9728961e-14 24.5333775 1.91514251e-13 -0.3221622383 0 -0.2250991705 -9.816035821e-14 1.235545686)
(-0.3964246421 -6.138013013e-14 30.34733831 1.858923732e-13 -0.3253684375 0 -0.233038204 -7.893964714e-14 1.214021241)
(-0.3823702606 -4.443518852e-14 37.3978925 1.808512043e-13 -0.3278534268 0 -0.2405828202 -6.68769553e-14 1.185126287)
(-0.3617967636 -2.709791703e-14 45.89414624 1.756631207e-13 -0.3295003618 0 -0.2476597452 -6.133944626e-14 1.147954668)
(-0.3338489186 -7.414911862e-15 56.06819063 1.696551841e-13 -0.330183435 0 -0.2540835899 -5.745320375e-14 1.101568181)
(-0.2976877645 1.396315924e-14 68.17494355 1.64086843e-13 -0.3297781996 0 -0.2597273273 -5.208516883e-14 1.04512412)
(-0.2526370285 3.490360044e-14 82.4919702 1.595259334e-13 -0.3281560112 0 -0.264442358 -4.244394113e-14 0.9778690395)
(-0.1982205058 5.028600227e-14 99.31841123 1.534396462e-13 -0.325200718 0 -0.2680265651 -2.51049703e-14 0.8992599971)
(-0.1340440326 6.463284489e-14 118.9734165 1.470647808e-13 -0.3208038007 0 -0.2702986243 -3.968077397e-14 0.8090286479)
(-0.06011868141 8.001254669e-14 141.7940967 1.421920038e-13 -0.314870554 0 -0.2710449256 -5.228938175e-14 0.7071459964)
(0.02325698727 6.613500043e-14 168.1327407 1.363551168e-13 -0.3073318527 6.15099734e-13 -0.2701182281 -9.216392079e-14 0.5939718428)
(0.115471061 5.636765338e-14 198.3541286 1.307419401e-13 -0.298140594 0 -0.2673832958 -7.515757088e-14 0.4702143147)
(0.2154516146 8.07715633e-14 232.8317461 1.265116062e-13 -0.2872816911 0 -0.2626796591 -6.632731699e-14 0.3369973103)
(0.321849317 1.105872014e-13 271.9440687 1.224409257e-13 -0.2747740481 0 -0.2559434808 -6.214742283e-14 0.1958987993)
(0.4329345193 1.410208331e-13 316.0715357 1.155624728e-13 -0.2606693119 0 -0.247147373 -6.158727289e-14 0.04884419927)
(0.5464304532 1.689616918e-13 365.591754 1.105854204e-13 -0.2450573264 0 -0.236286772 -6.521452305e-14 -0.1018170947)
(0.6597658389 1.969482401e-13 420.8746988 1.05129606e-13 -0.2280705144 0 -0.2234256656 -5.548877377e-14 -0.2532273634)
(0.7701401281 2.286964267e-13 482.2799312 9.91797658e-14 -0.2098771174 0 -0.2086912748 -4.587332829e-14 -0.4021833852)
(0.8743632212 2.650170006e-13 550.153481 9.213278396e-14 -0.1906825631 0 -0.1922688563 -3.533101501e-14 -0.5452414003)
(0.9689306887 3.026987419e-13 624.8235659 8.543824999e-14 -0.1707292961 0 -0.1744024386 -3.765644836e-14 -0.67856148)
(1.05007942 3.378881706e-13 706.5974329 7.819816599e-14 -0.1502947591 0 -0.1553926311 -4.048528524e-14 -0.797991706)
(1.113787185 3.70407185e-13 795.7593684 7.098289598e-14 -0.1296891966 0 -0.1355892804 -4.467891267e-14 -0.8991122739)
(1.155844178 4.013697841e-13 892.5685965 6.377709936e-14 -0.1092539246 0 -0.115384308 -4.06638268e-14 -0.9772525348)
(1.171924277 4.304750069e-13 997.2582222 5.627025977e-14 -0.0893571792 0 -0.0952342222 -2.739942438e-14 -1.027573952)
(1.157620898 4.55983774e-13 1110.035656 4.889155049e-14 -0.07039075409 0 -0.07562974159 -2.09627787e-14 -1.045181965)
(1.108653785 4.758655623e-13 1231.083157 4.118195145e-14 -0.05276575114 0 -0.05709715185 -1.490028526e-14 -1.025092967)
(1.020941813 5.047793314e-13 1360.558629 3.402442447e-14 -0.03690433836 0 -0.04017574959 -1.382944293e-14 -0.9622207656)
(0.8884477159 5.333257116e-13 1498.600394 2.628603556e-14 -0.02323517248 0 -0.02542009705 -1.253683349e-14 -0.851445916)
(0.6980368036 5.535838649e-13 1645.342501 1.889399028e-14 -0.01224377299 0 -0.01343863492 -1.100200758e-14 -0.6875724603)
(0.4427261223 5.814490954e-13 1800.95798 1.137797268e-14 -0.004593028225 0 -0.005032324192 -6.878760277e-15 -0.4652988894)
(0.2167348717 6.127901235e-13 1965.794487 3.846705304e-15 -0.0008210237051 0 -0.0008894600282 -2.320586325e-15 -0.1792188992)
(-0.1610184601 1.030245647e-12 0.12585775 -8.671915933e-13 -0.2623206289 0 -0.009499476125 2.461759785e-14 1.068209197)
(-0.2161652615 -5.30230423e-13 0.2972399993 -1.199057604e-12 -0.2299952752 0 -0.02478648111 1.332501893e-13 1.070627078)
(-0.2178745919 -1.20253173e-12 0.491841912 -5.894952855e-15 -0.2214179648 0 -0.03913098312 2.317535722e-13 1.075733396)
(-0.2294836185 -5.123121271e-13 0.7014137547 1.948016396e-13 -0.22205063 0 -0.05372306051 4.419170906e-14 1.083134268)
(-0.2389183333 -2.894387246e-13 0.9325665142 2.269953856e-13 -0.2244641294 0 -0.06800992601 -7.130527899e-15 1.092595832)
(-0.2492989985 -2.681560217e-13 1.193669307 2.292362681e-13 -0.2276835944 0 -0.08185198934 -2.001635172e-14 1.103891722)
(-0.2612715399 -2.668410732e-13 1.495546254 2.381685985e-13 -0.231549184 0 -0.09524606606 -2.587101457e-14 1.116631094)
(-0.274499376 -2.140592655e-13 1.852094835 2.393244551e-13 -0.2359867378 0 -0.1081878828 -3.141618602e-14 1.130458074)
(-0.2884749279 -1.44547985e-13 2.281315376 2.335033607e-13 -0.2408822456 0 -0.1206036847 -1.288834357e-14 1.144972008)
(-0.3029162854 -3.880571321e-13 2.806249554 2.212650543e-13 -0.2461317279 0 -0.1325225703 -9.471399477e-14 1.15963405)
(-0.317530266 -2.617237499e-13 3.456321752 2.589053723e-13 -0.2516530184 0 -0.1439989461 -8.497124201e-14 1.173844344)
(-0.3318910325 5.286435515e-14 4.268700839 2.298715285e-13 -0.257361779 0 -0.1550508393 -7.71832253e-14 1.186999599)
(-0.3455439019 -2.670314269e-14 5.289497757 2.134167267e-13 -0.263167378 0 -0.1656820485 -7.53437474e-14 1.198521008)
(-0.3580243696 -8.894743076e-14 6.574844234 2.023032454e-13 -0.2689774651 0 -0.1759410268 -6.362330077e-14 1.207875477)
(-0.3688634207 -1.095020486e-13 8.192085857 1.976788689e-13 -0.2746970543 0 -0.1859011861 -4.68298478e-14 1.214578866)
(-0.3776919312 -4.223890986e-14 10.22116017 1.924382699e-13 -0.2802317486 -1.595601525e-12 -0.195582872 -1.482002756e-14 1.2181438)
(-0.3842588124 -4.818250899e-14 12.75603814 1.813155276e-13 -0.2854971326 0 -0.2049542391 -3.951805115e-14 1.218042312)
(-0.3881715827 -1.812252317e-13 15.90618407 1.779169181e-13 -0.2904197023 0 -0.2139785867 -4.910320644e-14 1.213719438)
(-0.3887576592 -2.128129963e-13 19.79804285 1.807945289e-13 -0.2949184647 0 -0.222707903 -5.575051909e-14 1.204608704)
(-0.3853956693 -1.441488272e-13 24.57687604 1.811434432e-13 -0.2988982165 0 -0.2311459161 -5.876960487e-14 1.190034041)
(-0.3775032559 -1.000788822e-13 30.40827416 1.784566783e-13 -0.3022666083 0 -0.2391563294 -5.93326869e-14 1.169212452)
(-0.3642427325 -6.862980774e-14 37.47908873 1.755515354e-13 -0.3049253886 0 -0.2467002743 -5.860311606e-14 1.141338084)
(-0.3448288543 -4.298625492e-14 45.99857534 1.711088917e-13 -0.3067622328 0 -0.2537078052 -5.812228976e-14 1.105549148)
(-0.3185119378 -2.024658565e-14 56.19884631 1.651737264e-13 -0.3076677751 0 -0.2600052007 -5.712175025e-14 1.061005893)