/*--------------------------------*- C++ -*----------------------------------*\
  =========                 |
  \\      /  F ield         | OpenFOAM: The Open Source CFD Toolbox
   \\    /   O peration     | Website:  https://openfoam.org
    \\  /    A nd           | Version:  7
     \\/     M anipulation  |
\*---------------------------------------------------------------------------*/
FoamFile
{
    version     2.0;
    format      ascii;
    class       volScalarField;
    location    "0.0015";
    object      p;
}
// * * * * * * * * * * * * * * * * * * * * * * * * * * * * * * * * * * * * * //

dimensions      [1 -1 -2 0 0 0 0];

internalField   nonuniform List<scalar> 
1167
(
340143.6885
341545.9653
341516.3758
341744.7996
342159.7439
342683.851
343306.8152
344027.2991
344843.9711
345747.2612
346714.8923
347721.9726
348740.1596
349740.6232
350696.5474
351587.0763
352399.3191
329847.8517
331172.423
331144.3199
331357.7339
331757.2255
332255.324
332857.5447
333552.2083
334339.984
335211.8608
336148.4796
337125.5639
338114.731
339086.7068
340015.4701
340880.9215
341670.1056
342381.2346
343014.2186
343572.3544
344063.5193
344494.4526
344871.4675
345201.9035
345490.7278
345743.272
345963.7013
346155.3794
346321.795
346465.4273
346588.7405
346693.7878
346782.3137
346856.089
346916.572
346965.0571
347002.6956
347030.6326
347049.8524
347061.237
347065.5814
347063.5994
347055.9277
347043.1366
347025.7666
347004.3545
346979.2834
346950.1817
346916.1163
346882.1928
319570.3947
320811.1863
320781.9577
320988.1882
321369.4793
321842.9395
322416.8327
323087.3614
323846.6328
324687.9575
325593.1891
326538.418
327495.9127
328437.2326
329336.8369
330174.6354
330940.5592
331630.8735
332244.796
332786.0677
333262.5411
333679.8546
334045.0281
334364.6143
334643.5225
334887.3298
335099.7843
335284.5436
335444.8177
335583.0605
335701.8375
335803.0594
335888.4343
335959.7075
336018.2688
336065.3445
336102.09
336129.5723
336148.7245
336160.3814
336165.2942
336164.1339
336157.494
336145.9135
336129.908
336109.9885
336086.5109
336059.1125
336026.9014
335994.7404
309310.699
310459.5858
310432.1801
310632.2977
310990.5004
311442.8567
311987.0297
312631.5199
313362.9181
314172.9315
315045.5251
315957.6844
316882.2669
317791.2866
318659.3543
319468.7957
320210.3354
320877.9542
321471.2299
321995.3926
322456.316
322859.4628
323212.5615
323521.1563
323790.3353
324025.4237
324230.0459
324408.1167
324562.4984
324695.6472
324810.0954
324907.6964
324990.1347
325059.0864
325115.8803
325161.6729
325197.6317
325224.7427
325243.8892
325255.862
325261.3698
325261.0418
325255.4339
325245.0643
325230.4189
325211.9752
325190.0704
325164.3558
325133.9788
325103.5617
299060.6207
300119.5358
300101.7446
300290.9153
300623.4548
301056.0902
301572.8758
302185.0038
302888.2706
303667.4288
304506.3828
305384.0287
306273.8604
307147.8837
307983.476
308764.4441
309479.1678
310122.4723
310694.313
311200.3545
311644.9674
312033.8424
312374.3428
312671.5842
312931.1277
313157.6004
313354.6192
313526.0713
313674.6623
313802.9572
313913.2715
314007.3914
314087.0743
314153.852
314209.0044
314253.6415
314288.8933
314315.6946
314334.8827
314347.2053
314353.328
314353.8363
314349.2692
314340.1176
314326.8334
314309.8602
314289.5199
314265.4799
314236.9286
314208.2485
288828.8778
289797.4864
289787.1479
289963.0704
290273.4089
290680.8968
291170.8706
291750.3689
292420.8642
293168.0415
293973.3709
294815.0747
295667.9796
296506.7057
297309.7925
298060.0993
298746.3578
299363.7923
299914.1978
300400.9233
300828.2304
301202.7624
301530.4088
301816.2013
302065.9865
302283.7694
302473.3417
302638.2832
302781.1977
302904.793
303011.1209
303101.9058
303178.9546
303243.6642
303297.2567
303340.8235
303375.4334
303401.9749
303421.2421
303433.9402
303440.6923
303442.0499
303438.5351
303430.6076
303418.6881
303403.1914
303384.4194
303362.0556
303335.3322
303308.3926
278624.5023
279493.2348
279486.085
279644.7413
279936.4388
280314.2191
280779.6787
281328.6416
281963.8263
282675.4145
283445.1005
284250.0837
285065.9211
285869.139
286637.7646
287355.4332
288011.6806
288602.6541
289130.6156
289597.2208
290006.7465
290366.393
290680.7924
290955.1873
291194.9846
291403.9528
291586.1466
291744.6579
291882.0382
292000.9781
292103.4071
292190.9897
292265.4726
292328.1794
292380.2551
292422.8098
292456.8244
292483.1414
292502.5131
292515.6023
292522.989
292525.2135
292522.7646
292516.0706
292505.5241
292491.5131
292474.3197
292453.6439
292428.7627
292403.5781
268440.353
269203.3428
269198.1937
269342.1764
269613.967
269961.3951
270398.8416
270917.5988
271518.6645
272193.1961
272924.7493
273691.6423
274469.521
275234.6542
275966.6881
276650.2024
277274.9737
277839.491
278343.5613
278788.9053
279180.7139
279524.7756
279825.4019
280088.3275
280318.0542
280518.2351
280692.9651
280845.017
280976.9523
281091.278
281189.8226
281274.28
281346.2551
281407.008
281457.6189
281499.1925
281532.6361
281558.747
281578.2359
281591.7244
281599.7571
281602.8588
281601.4862
281596.0375
281586.8781
281574.3692
281558.7723
281539.8055
281516.7916
281493.3872
258278.4081
258928.0768
258922.4627
259058.775
259306.1363
259624.5909
260026.9238
260516.3018
261082.627
261719.5772
262412.0439
263138.8121
263876.2706
264601.7525
265295.7653
265943.2115
266536.6095
267073.5734
267552.8222
267976.173
268349.8006
268677.8747
268964.5243
269215.6601
269435.081
269626.5072
269793.6725
269939.1693
270065.7084
270175.4442
270270.1039
270351.4712
270420.9623
270479.7811
270528.9619
270569.5606
270602.4374
270628.3449
270647.9489
270661.8259
270670.5144
270674.5031
270674.2172
270670.0272
270662.2729
270651.2884
270637.3131
270620.0856
270598.9758
270577.3878
248131.7777
248660.3352
248662.6205
248789.2542
249006.935
249300.0149
249667.3466
250122.7307
250655.0795
251253.4007
251905.037
252590.0665
253285.7199
253970.0947
254624.1503
255235.0365
255796.7778
256304.7056
256758.018
257159.4805
257514.0774
257825.4691
258098.1589
258337.1379
258545.9417
258728.5572
258888.0932
259027.0122
259148.0909
259253.2144
259344.0184
259422.2731
259489.2629
259546.1064
259593.8596
259633.4801
259665.7815
259691.4747
259711.1831
259725.4419
259734.7834
259739.6614
259740.4701
259737.5533
259731.2256
259721.7941
259709.4764
259694.0303
259674.8727
259655.1484
237998.6927
238407.978
238423.2916
238535.4981
238722.6696
238989.4054
239323.432
239739.1216
240234.7422
240795.032
241404.5724
242046.0749
242697.9788
243338.7572
243952.0211
244526.6146
245054.9087
245532.6742
245959.1694
246338.4395
246673.4076
246967.5713
247226.0676
247452.6554
247650.7121
247824.2962
247976.0674
248108.3897
248223.8877
248324.3174
248411.2488
248486.34
248550.7866
248605.6179
248651.9122
248690.5242
248722.2201
248747.6664
248767.4422
248782.0748
248792.0601
248797.8221
248799.7278
248798.0967
248793.2185
248785.3738
248774.7589
248761.1482
248744.005
248726.2054
227889.2682
228177.2619
228198.5631
228292.5298
228454.9548
228687.9971
228990.6066
229367.9189
229821.2719
230340.3828
230907.58
231504.2228
232110.414
232707.3741
233280.0792
233816.9064
234310.4665
234756.9945
235156.7945
235513.0133
235827.7631
236104.5302
236348.2647
236562.0443
236749.3021
236913.5825
237057.3074
237182.9936
237292.8222
237388.4205
237471.4363
237543.3048
237605.1522
237657.9487
237702.7219
237740.2697
237771.3104
237796.4635
237816.2637
237831.2394
237841.8476
237848.4822
237851.4849
237851.152
237847.7498
237841.532
237832.6726
237820.9623
237805.9105
237790.112
217804.4819
217960.4903
217986.5787
218060.4274
218199.4623
218396.1752
218668.1648
219007.8118
219418.1017
219891.8634
220413.979
220964.5029
221524.5734
222077.5036
222608.1658
223105.6285
223563.4486
223977.8564
224350.689
224682.9995
224976.7165
225236.0285
225464.5648
225665.1068
225841.4071
225996.1918
226131.7
226250.5903
226354.618
226445.2828
226524.276
226592.8205
226651.9558
226702.6469
226745.8242
226782.2337
226812.546
226837.3363
226857.1133
226872.3831
226883.573
226891.0516
226895.1383
226896.1082
226894.2055
226889.6573
226882.6148
226872.8847
226860.023
226846.3242
207739.0683
207756.0125
207784.5031
207845.5096
207958.6346
208119.7759
208354.6211
208657.1525
209024.9697
209452.8317
209926.9026
210429.4197
210942.2144
211448.7529
211935.5207
212392.4334
212813.0926
213195.7606
213540.6905
213848.3946
214120.6242
214361.986
214574.9283
214761.9912
214926.9523
215071.9842
215199.1661
215310.9859
215409.0292
215494.6673
215569.4762
215634.5628
215690.858
215739.3489
215780.8388
215816.0219
215845.5187
215869.8547
215889.543
215905.0483
215916.7709
215925.0576
215930.2092
215932.4832
215932.104
215929.2737
215924.1201
215916.4653
215905.911
215894.4309
197691.7203
197560.6313
197593.2753
197645.2038
197727.7487
197856.6856
198050.2089
198315.3192
198639.4128
199019.9305
199444.8581
199897.4859
200360.8298
200819.6764
201261.5217
201676.605
202059.8176
202410.3705
202726.4335
203008.6396
203259.5571
203482.2914
203679.0252
203852.5087
204005.73
204140.5938
204259.3128
204363.8567
204455.6517
204536.1269
204606.5966
204668.0748
204721.4083
204767.5523
204807.2176
204841.0435
204869.6004
204893.3685
204912.8585
204928.4986
204940.6651
204949.6871
204955.8517
204959.4041
204960.5538
204959.4814
204956.2936
204950.8313
204942.7427
204933.6453
187651.5305
187372.1673
187418.8606
187457.5825
187505.7498
187605.5084
187758.5733
187979.1671
188260.8502
188592.8582
188966.6279
189367.6362
189780.2016
190190.1564
190585.5863
190958.0308
191304.2576
191621.3416
191907.701
192163.7913
192392.9693
192596.5885
192776.6204
192936.2208
193077.3868
193201.7949
193311.8098
193408.8554
193494.1937
193569.337
193635.3052
193693.0153
193743.276
193786.9452
193824.6678
193857.0217
193884.5206
193907.6357
193926.8353
193942.5213
193955.0509
193964.7399
193971.8672
193976.6725
193979.358
193980.0891
193978.9557
193975.8186
193970.3721
193963.846
177626.2233
177200.8713
177262.2506
177285.3994
177301.1973
177368.2811
177481.0113
177652.9267
177887.8862
178172.0721
178493.3434
178840.9459
179201.0448
179560.0712
179907.8119
180238.0034
180546.1929
180828.8697
181084.6431
181314.7626
181521.3648
181705.2909
181868.348
182013.4828
182142.1696
182255.8655
182356.7239
182445.9312
182524.5811
182594.0716
182655.2518
182708.9043
182755.8613
182796.8243
182832.3754
182863.0316
182889.246
182911.4967
182930.2009
182945.7343
182958.4378
182968.6199
182976.5593
182982.5007
182986.6525
182989.1794
182990.1696
182989.5243
182986.9953
182983.3436
167630.5805
167054.4011
167123.6916
167124.9057
167114.8054
167141.3798
167216.2812
167341.2728
167522.168
167753.4478
168021.5773
168314.4268
168620.0601
168927.3939
169227.6837
169514.8925
169783.6775
170031.1114
170255.5741
170459.3236
170642.6901
170806.2319
170952.2342
171082.5131
171198.2602
171301.136
171392.6434
171473.7863
171545.6641
171609.3932
171665.6978
171715.2395
171758.8345
171797.046
171830.3871
171859.314
171884.2267
171905.5796
171923.7484
171939.0814
171951.9027
171962.5148
171971.2013
171978.2227
171983.8091
171988.1445
171991.3353
171993.3385
171993.9734
171993.5003
157683.6544
156948.5974
157021.8004
156997.9989
156958.8789
156940.6701
156974.5728
157050.6987
157176.8992
157350.0827
157561.3806
157797.5609
158047.7766
158302.9056
158554.5692
158796.5755
159024.4218
159235.01
159427.9713
159604.0183
159763.0069
159905.2123
160033.2047
160147.7287
160249.6963
160340.9609
160422.3528
160494.6806
160559.1156
160616.4183
160667.2022
160712.0497
160751.6728
160786.5499
160817.1138
160843.7465
160866.8425
160886.7899
160903.928
160918.5789
160931.0512
160941.6442
160950.6538
160958.3695
160965.0668
160970.9867
160976.314
160981.157
160985.4848
160988.8479
147768.664
146908.8339
146981.8645
146938.2044
146855.2778
146782.8094
146756.4658
146776.1038
146840.8547
146950.7441
147098.1145
147272.751
147464.5776
147664.5526
147865.0356
148060.6135
148246.663
148420.2302
148581.8318
148730.0603
148864.6821
148986.3817
149096.6086
149195.8119
149284.7276
149364.8395
149436.6994
149500.8999
149558.4986
149610.0041
149655.8726
149696.6986
149732.9971
149765.1652
149793.5553
149818.4702
149840.294
149859.3373
149875.8929
149890.2471
149902.6831
149913.4877
149922.9623
149931.4266
149939.2147
149946.6546
149954.0562
149961.7413
149969.9182
149977.5226
138378.3279
137148.3946
137147.1794
137056.6377
136915.1222
136790.3095
136702.1818
136663.4983
136663.1828
136703.3838
136779.3739
136882.8514
137005.3449
137139.2596
137278.0566
137416.7493
137550.6883
137678.7934
137799.6699
137911.6278
138014.1171
138108.3413
138194.267
138272.0281
138342.5508
138406.4929
138464.1403
138516.0389
138562.8725
138604.9579
138642.5718
138676.2755
138706.3727
138733.1575
138756.89
138777.8097
138796.2277
138812.3916
138826.5402
138838.9134
138849.7577
138859.3348
138867.9382
138875.9072
138883.6362
138891.5787
138900.3143
138910.7352
138923.7221
138937.0662
127150.3907
126628.9692
126819.2924
126718.9495
126514.5877
126328.5369
126175.0972
126074.1888
126023.677
126015.2266
126045.9348
126108.1826
126193.4136
126293.8693
126402.6399
126514.066
126625.2561
126734.098
126837.9027
126934.9806
127025.085
127108.8665
127185.7644
127255.7428
127319.955
127378.4859
127431.4907
127479.7159
127523.5039
127563.1217
127598.8043
127631.0518
127660.1097
127686.2098
127709.5449
127730.3712
127748.9191
127765.3901
127779.9791
127792.8824
127804.3034
127814.4635
127823.6239
127832.1099
127840.335
127848.8271
127858.3698
127870.3948
127886.7432
127905.1599
126119.4985
123663.8211
123045.6339
122390.814
121661.9809
120952.6646
120280.5593
119665.8684
119122.3949
118646.9924
118237.1263
117890.8656
117603.3866
117367.552
117176.2653
117023.9157
116905.3174
116813.8149
116744.2838
116691.8708
116654.5132
116628.9309
116612.0509
116602.0837
116597.8123
116597.6146
116600.1554
116605.079
116611.5191
116618.8097
116626.6298
116634.7183
116642.8055
116650.6829
116658.1589
116665.2354
116671.8504
116677.9788
116683.6229
116688.8109
116693.5959
116698.0616
116702.3397
116706.6312
116711.2218
116716.5346
116723.5422
116734.9251
116754.94
116780.2465
102769.3489
102972.7586
103367.8015
103474.7668
103523.7741
103592.7628
103684.8811
103796.165
103922.9622
104059.2139
104195.5829
104328.8413
104456.6081
104576.3298
104686.8302
104788.893
104882.0399
104966.2957
105042.2167
105110.0849
105171.5779
105226.968
105276.6052
105321.4107
105361.9512
105398.5861
105431.6103
105461.6402
105488.8773
105513.5021
105535.874
105556.1596
105574.5238
105591.1067
105606.008
105619.3901
105631.3515
105641.9857
105651.381
105659.6235
105666.7986
105672.9959
105678.3197
105682.902
105686.9068
105690.5422
105694.3533
105700.3994
105713.3632
105734.1255
)
;

boundaryField
{
    front_top
    {
        type            wedge;
    }
    front_middle
    {
        type            wedge;
    }
    front_bottom
    {
        type            wedge;
    }
    back_top
    {
        type            wedge;
    }
    back_middle
    {
        type            wedge;
    }
    back_bottom
    {
        type            wedge;
    }
    axis_top
    {
        type            symmetryPlane;
    }
    axis_middle
    {
        type            symmetryPlane;
    }
    axis_bottom
    {
        type            symmetryPlane;
    }
    wall_top
    {
        type            fixedFluxPressure;
        gradient        nonuniform 0();
        value           nonuniform 0();
    }
    wall_middle
    {
        type            fixedFluxPressure;
        gradient        nonuniform 0();
        value           nonuniform 0();
    }
    wall_bottom
    {
        type            fixedFluxPressure;
        gradient        uniform 0;
        value           nonuniform List<scalar> 
23
(
346882.1928
335994.7404
325103.5617
314208.2485
303308.3926
292403.5781
281493.3872
270577.3878
259655.1484
248726.2054
237790.112
226846.3242
215894.4309
204933.6453
193963.846
182983.3436
171993.5003
160988.8479
149977.5226
138937.0662
127905.1599
116780.2465
105734.1255
)
;
    }
    inlet
    {
        type            zeroGradient;
    }
    outlet
    {
        type            fixedValue;
        value           uniform 100000;
    }
    procBoundary0to1
    {
        type            processor;
        value           nonuniform List<scalar> 
51
(
350459.5954
351932.0713
351900.5171
352143.3393
352574.4812
353123.4618
353767.0599
354514.1426
355362.2758
356294.2614
357291.0676
358327.4896
359374.1598
360400.7221
361380.9801
362294.3442
363127.5682
353129.2825
353129.2825
353779.81
354354.219
354859.0726
355302.8387
355691.7327
356032.8974
356331.7593
356593.1332
356821.6593
357020.615
357193.4976
357342.8541
357470.9821
357580.1354
357672.1097
357748.6009
357811.1891
357861.2181
357899.8838
357928.3814
357947.7468
357958.9129
357962.7224
357959.9339
357951.2263
357937.2103
357918.4555
357895.527
357868.8351
357837.9995
357802.0461
357766.3282
)
;
    }
}


// ************************************************************************* //
