/*--------------------------------*- C++ -*----------------------------------*\
  =========                 |
  \\      /  F ield         | OpenFOAM: The Open Source CFD Toolbox
   \\    /   O peration     | Website:  https://openfoam.org
    \\  /    A nd           | Version:  7
     \\/     M anipulation  |
\*---------------------------------------------------------------------------*/
FoamFile
{
    version     2.0;
    format      ascii;
    class       surfaceScalarField;
    location    "0.0015";
    object      phi;
}
// * * * * * * * * * * * * * * * * * * * * * * * * * * * * * * * * * * * * * //

dimensions      [1 0 -1 0 0 0 0];

internalField   nonuniform List<scalar> 
2260
(
-7.896472873e-15
5.791636457e-11
-3.107284786e-14
1.694603112e-10
-6.889246902e-14
2.747504669e-10
-1.208827887e-13
3.740252007e-10
-1.866919934e-13
4.675174922e-10
-2.66039598e-13
5.554541542e-10
-3.587247441e-13
6.380556345e-10
-4.6461301e-13
7.155351329e-10
-5.835536504e-13
7.880982774e-10
-7.153448465e-13
8.559424424e-10
-8.597960822e-13
9.192558974e-10
-1.016652631e-12
9.782170185e-10
-1.185577405e-12
1.032993193e-09
-1.36610879e-12
1.083739677e-09
-1.557667848e-12
1.130598449e-09
-1.759555013e-12
1.173697014e-09
1.213147257e-09
-7.345615536e-15
5.792371018e-11
-2.891434169e-14
1.6948188e-10
-6.414366825e-14
2.747856963e-10
-1.126618405e-13
3.740737189e-10
-1.74153426e-13
4.675789838e-10
-2.484844435e-13
5.555284852e-10
-3.354714275e-13
6.381426215e-10
-4.35093874e-13
7.156347554e-10
-5.472770661e-13
7.882104606e-10
-6.719073967e-13
8.560670728e-10
-8.088386599e-13
9.193928286e-10
-9.57843873e-13
9.783660237e-10
-1.118593833e-12
1.033153942e-09
-1.290643573e-12
1.083911727e-09
-1.473420392e-12
1.130781226e-09
-1.666207845e-12
1.173889801e-09
-1.868217985e-12
1.213349267e-09
-2.078275998e-12
1.249254409e-09
-2.294997721e-12
1.281681725e-09
-2.516810635e-12
1.310688487e-09
-2.741621416e-12
1.3363114e-09
-2.966963155e-12
1.358564919e-09
-3.190069946e-12
1.377441081e-09
-3.407514693e-12
1.392907839e-09
-3.615669244e-12
1.404908983e-09
-3.81039751e-12
1.413363543e-09
-3.987288608e-12
1.41816578e-09
-4.14187761e-12
1.419186209e-09
-4.269437229e-12
1.416271744e-09
-4.365494797e-12
1.409247903e-09
-4.425736473e-12
1.397920372e-09
-4.446287706e-12
1.382077229e-09
-4.423972247e-12
1.361492219e-09
-4.356264097e-12
1.335927744e-09
-4.241632756e-12
1.305138299e-09
-4.079656087e-12
1.268874315e-09
-3.871220948e-12
1.226886939e-09
-3.618474352e-12
1.178930828e-09
-3.325044231e-12
1.124769198e-09
-2.996076982e-12
1.064177598e-09
-2.638287443e-12
9.969474519e-10
-2.259985248e-12
9.228898998e-10
-1.871078595e-12
8.418390984e-10
-1.483054918e-12
7.536547105e-10
-1.108916457e-12
6.582245034e-10
-7.63122073e-13
5.554658409e-10
-4.615324694e-13
4.453271373e-10
-2.213296417e-13
3.277879079e-10
-6.094123862e-14
2.028573992e-10
7.056823696e-11
-6.777700634e-15
5.793048788e-11
-2.668903183e-14
1.695017913e-10
-5.926134904e-14
2.748182686e-10
-1.041804083e-13
3.741186379e-10
-1.61219755e-13
4.676360231e-10
-2.303370549e-13
5.555976025e-10
-3.11457968e-13
6.382237424e-10
-4.045849428e-13
7.157278824e-10
-5.097540766e-13
7.883156297e-10
-6.269205176e-13
8.561842392e-10
-7.559939291e-13
9.19521902e-10
-8.967906662e-13
9.785068204e-10
-1.04901139e-12
1.033306163e-09
-1.212229071e-12
1.084074945e-09
-1.385875874e-12
1.130954873e-09
-1.56929064e-12
1.174073216e-09
-1.761585588e-12
1.213541562e-09
-1.961596038e-12
1.24945442e-09
-2.167986512e-12
1.281888115e-09
-2.379211237e-12
1.310899711e-09
-2.593173464e-12
1.336525362e-09
-2.807579957e-12
1.358779325e-09
-3.019687367e-12
1.377653189e-09
-3.22626444e-12
1.393114416e-09
-3.423905966e-12
1.405106625e-09
-3.608621609e-12
1.413548259e-09
-3.776334948e-12
1.418333494e-09
-3.922760767e-12
1.419332635e-09
-4.043492668e-12
1.416392476e-09
-4.134368763e-12
1.409338779e-09
-4.191283733e-12
1.397977287e-09
-4.210632084e-12
1.382096577e-09
-4.189446698e-12
1.361471033e-09
-4.125344962e-12
1.335863642e-09
-4.016893019e-12
1.305029847e-09
-3.863726454e-12
1.268721148e-09
-3.666631467e-12
1.226689844e-09
-3.427632373e-12
1.178691829e-09
-3.150130152e-12
1.124491696e-09
-2.838958865e-12
1.063866427e-09
-2.500434982e-12
9.96608928e-10
-2.14238702e-12
9.225318518e-10
-1.774175121e-12
8.414708865e-10
-1.406659016e-12
7.532871944e-10
-1.052141518e-12
6.578699858e-10
-7.24316677e-13
5.551380159e-10
-4.382403248e-13
4.450410609e-10
-2.102562398e-13
3.275599237e-10
-5.792753194e-14
2.027050703e-10
7.051030934e-11
-6.194557674e-15
5.793668244e-11
-2.440904104e-14
1.695200058e-10
-5.425291471e-14
2.748481124e-10
-9.54652485e-14
3.741598502e-10
-1.479443913e-13
4.676885022e-10
-2.116842298e-13
5.556613424e-10
-2.867574989e-13
6.382988157e-10
-3.731931742e-13
7.15814318e-10
-4.711075303e-13
7.88413544e-10
-5.805413633e-13
8.56293673e-10
-7.014626477e-13
9.196428233e-10
-8.337347543e-13
9.786390925e-10
-9.770938169e-13
1.033449522e-09
-1.131137057e-12
1.084228988e-09
-1.295347806e-12
1.131119084e-09
-1.469054329e-12
1.174246922e-09
-1.651304823e-12
1.213723813e-09
-1.841002613e-12
1.249644118e-09
-2.03689372e-12
1.282084006e-09
-2.237351778e-12
1.311100169e-09
-2.440399091e-12
1.33672841e-09
-2.643891702e-12
1.358982818e-09
-2.845096694e-12
1.377854394e-09
-3.041010828e-12
1.39331033e-09
-3.228375305e-12
1.405293989e-09
-3.40342553e-12
1.413723309e-09
-3.562376677e-12
1.418492445e-09
-3.70110015e-12
1.419471358e-09
-3.815506059e-12
1.416506882e-09
-3.901689983e-12
1.409424963e-09
-3.955793982e-12
1.398031391e-09
-3.974446789e-12
1.38211523e-09
-3.954852764e-12
1.361451439e-09
-3.894773718e-12
1.335803563e-09
-3.792856311e-12
1.30492793e-09
-3.648789276e-12
1.268577081e-09
-3.463245276e-12
1.2265043e-09
-3.238126388e-12
1.17846671e-09
-2.97660852e-12
1.124230178e-09
-2.683218922e-12
1.063573037e-09
-2.363884621e-12
9.962895937e-10
-2.025968504e-12
9.221939357e-10
-1.678296947e-12
8.411232149e-10
-1.331100569e-12
7.529399979e-10
-9.959975899e-13
6.575348828e-10
-6.859474757e-13
5.548279658e-10
-4.152125311e-13
4.447703259e-10
-1.993092933e-13
3.273440204e-10
-5.494827013e-14
2.025607091e-10
7.045536098e-11
-5.601501256e-15
5.794228394e-11
-2.208620327e-14
1.695364905e-10
-4.912770551e-14
2.748751539e-10
-8.654958122e-14
3.741972721e-10
-1.343655093e-13
4.677363182e-10
-1.925963719e-13
5.557195732e-10
-2.614317198e-13
6.383676511e-10
-3.410126954e-13
7.15893899e-10
-4.31467809e-13
7.885039991e-10
-5.32925531e-13
8.563951307e-10
-6.454254497e-13
9.197553232e-10
-7.688800372e-13
9.787625471e-10
-9.030634732e-13
1.033583706e-09
-1.047636683e-12
1.084373561e-09
-1.202094827e-12
1.131273542e-09
-1.365711309e-12
1.174410539e-09
-1.537611163e-12
1.213895713e-09
-1.716733009e-12
1.24982324e-09
-1.901876078e-12
1.282269149e-09
-2.091385658e-12
1.311289679e-09
-2.283420403e-12
1.336920445e-09
-2.475909156e-12
1.359175307e-09
-2.666235669e-12
1.37804472e-09
-2.85162305e-12
1.393495718e-09
-3.028880055e-12
1.405471246e-09
-3.194510241e-12
1.413888939e-09
-3.344960374e-12
1.418642895e-09
-3.476328287e-12
1.419602726e-09
-3.584822616e-12
1.416615377e-09
-3.666716022e-12
1.409506856e-09
-3.718417484e-12
1.398083092e-09
-3.736807019e-12
1.382133619e-09
-3.719191446e-12
1.361433824e-09
-3.66349383e-12
1.335747865e-09
-3.568434079e-12
1.30483287e-09
-3.433715356e-12
1.268442362e-09
-3.259937155e-12
1.226330522e-09
-3.04886073e-12
1.178255634e-09
-2.803438686e-12
1.123984756e-09
-2.527894326e-12
1.063297493e-09
-2.227771218e-12
9.959894705e-10
-1.909989581e-12
9.21876154e-10
-1.582822322e-12
8.407960476e-10
-1.255884503e-12
7.526130601e-10
-9.401181412e-13
6.572191164e-10
-6.477620825e-13
5.545356096e-10
-3.922953657e-13
4.445148591e-10
-1.884146441e-13
3.271401395e-10
-5.198304287e-14
2.024242774e-10
7.040337784e-11
-4.998576134e-15
5.794728252e-11
-1.971817081e-14
1.695512101e-10
-4.390375178e-14
2.748993395e-10
-7.74715413e-14
3.742308399e-10
-1.205117138e-13
4.677793583e-10
-1.731297499e-13
5.557721913e-10
-2.355821527e-13
6.384301035e-10
-3.081237412e-13
7.159664406e-10
-3.909461736e-13
7.885868216e-10
-4.842243768e-13
8.564884089e-10
-5.880594546e-13
9.198591583e-10
-7.024301998e-13
9.788769179e-10
-8.271718903e-13
1.033708447e-09
-9.619670962e-13
1.084508357e-09
-1.106302661e-12
1.131417877e-09
-1.259498623e-12
1.174563735e-09
-1.420727109e-12
1.214056941e-09
-1.589023205e-12
1.249991536e-09
-1.763110224e-12
1.282443236e-09
-1.941452977e-12
1.311468022e-09
-2.122352941e-12
1.337101345e-09
-2.303714185e-12
1.359356668e-09
-2.483118247e-12
1.378224124e-09
-2.657982784e-12
1.393670582e-09
-2.82521242e-12
1.405638476e-09
-2.981592782e-12
1.414045319e-09
-3.123729885e-12
1.418785032e-09
-3.247985147e-12
1.419726982e-09
-3.350855981e-12
1.416718247e-09
-3.428763978e-12
1.409584764e-09
-3.478384243e-12
1.398132713e-09
-3.496828454e-12
1.382152064e-09
-3.481508607e-12
1.361418504e-09
-3.430494115e-12
1.335696851e-09
-3.342585383e-12
1.304744961e-09
-3.217467927e-12
1.268317245e-09
-3.055680317e-12
1.226168734e-09
-2.85883921e-12
1.178058793e-09
-2.629675395e-12
1.123755592e-09
-2.372111341e-12
1.063039929e-09
-2.091317114e-12
9.957086763e-10
-1.793763855e-12
9.215786007e-10
-1.487171826e-12
8.404894556e-10
-1.180548292e-12
7.523064365e-10
-8.841628442e-13
6.569227309e-10
-6.095282073e-13
5.54260975e-10
-3.693485216e-13
4.442746794e-10
-1.775048281e-13
3.269482958e-10
-4.901324048e-14
2.022957857e-10
7.035436451e-11
-4.384455205e-15
5.795166697e-11
-1.73094628e-14
1.695641351e-10
-3.859591302e-14
2.74920626e-10
-6.826313008e-14
3.742605071e-10
-1.064360875e-13
4.678175313e-10
-1.533608262e-13
5.55819116e-10
-2.093088575e-13
6.384860515e-10
-2.746433409e-13
7.160317751e-10
-3.496506263e-13
7.886618289e-10
-4.345610316e-13
8.565733193e-10
-5.295230438e-13
9.199541203e-10
-6.345701142e-13
9.789819649e-10
-7.495879607e-13
1.033823465e-09
-8.742672763e-13
1.084633036e-09
-1.008146904e-12
1.131551757e-09
-1.150600799e-12
1.174706189e-09
-1.30086369e-12
1.214207204e-09
-1.458016665e-12
1.250148689e-09
-1.620766336e-12
1.282605986e-09
-1.787700272e-12
1.311634956e-09
-1.957248596e-12
1.337270893e-09
-2.127324718e-12
1.359526744e-09
-2.295725377e-12
1.378392525e-09
-2.459979255e-12
1.393834836e-09
-2.617187247e-12
1.405795684e-09
-2.764396546e-12
1.414192529e-09
-2.898327512e-12
1.418918963e-09
-3.015625637e-12
1.41984428e-09
-3.113030474e-12
1.416815652e-09
-3.187172302e-12
1.409658906e-09
-3.234954115e-12
1.398180494e-09
-3.253677256e-12
1.382170787e-09
-3.240907725e-12
1.361405734e-09
-3.19482753e-12
1.335650771e-09
-3.114336503e-12
1.30466447e-09
-2.999063662e-12
1.268201972e-09
-2.849498338e-12
1.226019169e-09
-2.667112045e-12
1.177876406e-09
-2.45441524e-12
1.123542896e-09
-2.215031916e-12
1.062800546e-09
-1.953774716e-12
9.954474191e-10
-1.676632442e-12
9.213014584e-10
-1.39079014e-12
8.402036132e-10
-1.104643735e-12
7.520202901e-10
-8.277894305e-13
6.566458765e-10
-5.710101986e-13
5.540041957e-10
-3.462314812e-13
4.440499006e-10
-1.665142782e-13
3.267685785e-10
-4.602160221e-14
2.021752929e-10
7.030834282e-11
-3.763500055e-15
5.795543047e-11
-1.487411189e-14
1.695752457e-10
-3.323456915e-14
2.749389864e-10
-5.894954399e-14
3.742862221e-10
-9.21934491e-14
4.678507752e-10
-1.333362201e-13
5.558602588e-10
-1.826915773e-13
6.385354068e-10
-2.4069789e-13
7.160897814e-10
-3.077226141e-13
7.887288536e-10
-3.840717152e-13
8.566496684e-10
-4.699493276e-13
9.200399979e-10
-5.654266755e-13
9.790774423e-10
-6.704217041e-13
1.03392846e-09
-7.846866382e-13
1.084747301e-09
-9.078090718e-13
1.13167488e-09
-1.039208132e-12
1.174837588e-09
-1.178222776e-12
1.214346219e-09
-1.323871418e-12
1.250294337e-09
-1.474985043e-12
1.2827571e-09
-1.630280611e-12
1.311790251e-09
-1.788187829e-12
1.3374288e-09
-1.946776241e-12
1.359685332e-09
-2.10404203e-12
1.378549791e-09
-2.257564579e-12
1.393988359e-09
-2.404684035e-12
1.405942803e-09
-2.542670993e-12
1.414330516e-09
-2.668414565e-12
1.419044707e-09
-2.778831657e-12
1.419954697e-09
-2.870854133e-12
1.416907675e-09
-2.941351444e-12
1.409729403e-09
-2.987468662e-12
1.398226612e-09
-3.006641332e-12
1.38218996e-09
-2.996610823e-12
1.361395704e-09
-2.955668463e-12
1.335609828e-09
-2.882797835e-12
1.3045916e-09
-2.777589167e-12
1.268096763e-09
-2.640474447e-12
1.225882054e-09
-2.472781046e-12
1.177708713e-09
-2.276800364e-12
1.123346915e-09
-2.05586172e-12
1.062579607e-09
-1.814409718e-12
9.952059671e-10
-1.557952609e-12
9.210450013e-10
-1.29313442e-12
8.399387951e-10
-1.027734496e-12
7.517548901e-10
-7.70667996e-13
6.563888101e-10
-5.319788802e-13
5.537655066e-10
-3.228056013e-13
4.438407273e-10
-1.553768908e-13
3.266011498e-10
-4.299005866e-14
2.02062906e-10
7.026535267e-11
-3.138036839e-15
5.795856851e-11
-1.242125249e-14
1.695845289e-10
-2.784409998e-14
2.749544093e-10
-4.955674917e-14
3.743079347e-10
-7.783375035e-14
4.678790522e-10
-1.131086984e-13
5.558955337e-10
-1.558139975e-13
6.385781121e-10
-2.063856178e-13
7.16140353e-10
-2.652963924e-13
7.887877644e-10
-3.329131505e-13
8.567172852e-10
-4.094945221e-13
9.201165793e-10
-4.951612733e-13
9.79163109e-10
-5.898796495e-13
1.034023179e-09
-6.934518534e-13
1.084850873e-09
-8.055138223e-13
1.131786941e-09
-9.255871827e-13
1.174957661e-09
-1.052999155e-12
1.214473631e-09
-1.186812729e-12
1.250428151e-09
-1.325969561e-12
1.282896256e-09
-1.469329612e-12
1.311933611e-09
-1.615310659e-12
1.337574781e-09
-1.762162593e-12
1.359832184e-09
-1.908055842e-12
1.378695684e-09
-2.050663657e-12
1.394130966e-09
-2.187573516e-12
1.406079713e-09
-2.316210037e-12
1.414459152e-09
-2.433697073e-12
1.419162194e-09
-2.537230261e-12
1.42005823e-09
-2.623873237e-12
1.416994318e-09
-2.69076072e-12
1.409796291e-09
-2.735293659e-12
1.398271145e-09
-2.75501004e-12
1.382209676e-09
-2.74784035e-12
1.361388534e-09
-2.712187392e-12
1.335574175e-09
-2.647092708e-12
1.304526505e-09
-2.552143446e-12
1.268001814e-09
-2.427701504e-12
1.225757612e-09
-2.274951847e-12
1.177555963e-09
-2.095967476e-12
1.123167931e-09
-1.893803506e-12
1.062377443e-09
-1.67249266e-12
9.949846562e-10
-1.4370794e-12
9.20809588e-10
-1.193655873e-12
8.396953715e-10
-9.493759576e-13
7.515106102e-10
-7.124604971e-13
6.561518945e-10
-4.92198621e-13
5.535452446e-10
-2.989282529e-13
4.436474569e-10
-1.440253693e-13
3.264462468e-10
-3.990081132e-14
2.019587813e-10
7.022545179e-11
-2.510836121e-15
5.796107934e-11
-9.967060703e-15
1.695919851e-10
-2.243193414e-14
2.749668742e-10
-4.011627318e-14
3.743256191e-10
-6.341081629e-14
4.679023467e-10
-9.276561347e-14
5.559248885e-10
-1.287412152e-13
6.386140877e-10
-1.718122933e-13
7.161834241e-10
-2.224905914e-13
7.888384426e-10
-2.812268554e-13
8.567760215e-10
-3.483321108e-13
9.201836845e-10
-4.239766341e-13
9.792387535e-10
-5.08175776e-13
1.034107378e-09
-6.007817763e-13
1.084943479e-09
-7.015135423e-13
1.131887673e-09
-8.099466918e-13
1.175066094e-09
-9.25385878e-13
1.21458907e-09
-1.047023664e-12
1.250549789e-09
-1.173921829e-12
1.283023155e-09
-1.304966401e-12
1.312064656e-09
-1.438700447e-12
1.337708515e-09
-1.573554875e-12
1.359967039e-09
-1.707765431e-12
1.378829894e-09
-1.839210662e-12
1.394262412e-09
-1.965720926e-12
1.406206223e-09
-2.084822156e-12
1.414578253e-09
-2.193905967e-12
1.419271278e-09
-2.290426237e-12
1.42015475e-09
-2.371611213e-12
1.417075503e-09
-2.434846868e-12
1.409859526e-09
-2.477759603e-12
1.398314057e-09
-2.498037973e-12
1.382229954e-09
-2.493777754e-12
1.361384274e-09
-2.463530113e-12
1.335543928e-09
-2.406341845e-12
1.304469317e-09
-2.321822725e-12
1.267917295e-09
-2.210267557e-12
1.225646057e-09
-2.072723445e-12
1.177418419e-09
-1.911048594e-12
1.123006256e-09
-1.728019923e-12
1.062194414e-09
-1.5272558e-12
9.947838921e-10
-1.31332925e-12
9.205956615e-10
-1.091770656e-12
8.394738129e-10
-8.690941468e-13
7.512879337e-10
-6.528076323e-13
6.559356081e-10
-4.514228927e-13
5.533438599e-10
-2.744501299e-13
4.434704841e-10
-1.323870841e-13
3.263041838e-10
-3.673329278e-14
2.018631275e-10
7.018871842e-11
-1.885970437e-15
5.796296531e-11
-7.51606052e-15
1.695976152e-10
-1.701093605e-14
2.74976369e-10
-3.066329831e-14
3.743392714e-10
-4.895702481e-14
4.679206405e-10
-7.236771899e-14
5.559482992e-10
-1.015419416e-13
6.38643262e-10
-1.370523659e-13
7.162189345e-10
-1.794224761e-13
7.888808128e-10
-2.291477598e-13
8.568257467e-10
-2.866140934e-13
9.202411509e-10
-3.520391116e-13
9.793041785e-10
-4.254858535e-13
1.034180824e-09
-5.068871698e-13
1.08502488e-09
-5.960118455e-13
1.131976798e-09
-6.924327428e-13
1.175162515e-09
-7.955588372e-13
1.214692196e-09
-9.046665632e-13
1.250658896e-09
-1.018964383e-12
1.283137452e-09
-1.137314635e-12
1.312183006e-09
-1.25844213e-12
1.337829643e-09
-1.380970151e-12
1.360089567e-09
-1.50316462e-12
1.378952089e-09
-1.623141035e-12
1.394382388e-09
-1.738947335e-12
1.40632203e-09
-1.848256907e-12
1.414687563e-09
-1.948717422e-12
1.419371738e-09
-2.037998967e-12
1.420244032e-09
-2.113560552e-12
1.417151064e-09
-2.173022074e-12
1.409918988e-09
-2.214203741e-12
1.398355239e-09
-2.234985684e-12
1.382250736e-09
-2.233618128e-12
1.361382906e-09
-2.208807257e-12
1.335519117e-09
-2.159605449e-12
1.304420115e-09
-2.08565197e-12
1.267843342e-09
-1.987180264e-12
1.225547586e-09
-1.865105462e-12
1.177296344e-09
-1.721093691e-12
1.122862244e-09
-1.557597963e-12
1.062030919e-09
-1.377850273e-12
9.946041444e-10
-1.185938128e-12
9.204037493e-10
-9.868185458e-13
8.392746933e-10
-7.863468711e-13
7.51087462e-10
-5.912930108e-13
6.557405542e-10
-4.093607492e-13
5.531619276e-10
-2.491938156e-13
4.433103171e-10
-1.2037733e-13
3.261753672e-10
-3.346492184e-14
2.017762149e-10
7.015525343e-11
-1.262977563e-15
5.796422829e-11
-5.065213181e-15
1.696014175e-10
-1.159715198e-14
2.74982901e-10
-2.123605961e-14
3.743489103e-10
-3.450458368e-14
4.67933909e-10
-5.197713006e-14
5.559657717e-10
-7.431597982e-14
6.386656008e-10
-1.021837723e-13
7.162468023e-10
-1.3617364e-13
7.889148026e-10
-1.767985308e-13
8.568663716e-10
-2.244839905e-13
9.202888363e-10
-2.795111393e-13
9.793592057e-10
-3.42008407e-13
1.034243322e-09
-4.119508975e-13
1.085094823e-09
-4.89133819e-13
1.132053981e-09
-5.732032764e-13
1.175246585e-09
-6.636608451e-13
1.214782654e-09
-7.599025588e-13
1.250755138e-09
-8.611768975e-13
1.283238727e-09
-9.664416285e-13
1.312288271e-09
-1.074579568e-12
1.337937781e-09
-1.184354486e-12
1.360199342e-09
-1.294151764e-12
1.379061886e-09
-1.402316001e-12
1.394490552e-09
-1.507034717e-12
1.406426748e-09
-1.606213863e-12
1.414786742e-09
-1.697778079e-12
1.419463302e-09
-1.77952964e-12
1.420325783e-09
-1.849204889e-12
1.417220739e-09
-1.904695451e-12
1.409974478e-09
-1.943957253e-12
1.398394501e-09
-1.965099244e-12
1.382271878e-09
-1.966534571e-12
1.361384342e-09
-1.947094999e-12
1.335499677e-09
-1.905899586e-12
1.304378919e-09
-1.842603015e-12
1.267780045e-09
-1.757386828e-12
1.225462369e-09
-1.651041418e-12
1.177189999e-09
-1.525050989e-12
1.122736254e-09
-1.381535839e-12
1.061887403e-09
-1.223341392e-12
9.9444595e-10
-1.054061834e-12
9.202344698e-10
-8.7806602e-13
8.390986975e-10
-7.00527142e-13
7.509099231e-10
-5.274450229e-13
6.555674721e-10
-3.656754942e-13
5.530001581e-10
-2.229499649e-13
4.431675916e-10
-1.078928916e-13
3.260603102e-10
-3.006581057e-14
2.016983878e-10
7.012518756e-11
-6.420850037e-16
5.796487037e-11
-2.626850061e-15
1.696034022e-10
-6.211357237e-15
2.749864855e-10
-1.185814289e-14
3.743545571e-10
-2.010717329e-14
4.67942158e-10
-3.165019686e-14
5.559773148e-10
-4.713703825e-14
6.386810876e-10
-6.731328426e-14
7.162669785e-10
-9.283285125e-14
7.889403222e-10
-1.242606146e-13
8.568977994e-10
-1.620408921e-13
9.203266166e-10
-2.065044825e-13
9.794036693e-10
-2.578326721e-13
1.03429465e-09
-3.160269671e-13
1.085153017e-09
-3.809512704e-13
1.132118905e-09
-4.523400211e-13
1.175317973e-09
-5.297698134e-13
1.214860083e-09
-6.127760674e-13
1.250838144e-09
-7.005936941e-13
1.283326544e-09
-7.923466445e-13
1.312380024e-09
-8.8710177e-13
1.338032536e-09
-9.83660825e-13
1.360295901e-09
-1.080620325e-12
1.379158846e-09
-1.176561883e-12
1.394586494e-09
-1.269762168e-12
1.406519949e-09
-1.358396542e-12
1.414875377e-09
-1.440664206e-12
1.41954557e-09
-1.51451082e-12
1.42039963e-09
-1.577951976e-12
1.417284181e-09
-1.62914807e-12
1.410025675e-09
-1.666209328e-12
1.398431562e-09
-1.687473756e-12
1.382293143e-09
-1.69154838e-12
1.361388416e-09
-1.677359054e-12
1.335485488e-09
-1.644123504e-12
1.304345684e-09
-1.59152122e-12
1.267727443e-09
-1.519695086e-12
1.225390543e-09
-1.429329791e-12
1.177099634e-09
-1.321708408e-12
1.122628632e-09
-1.198649209e-12
1.061764344e-09
-1.062603566e-12
9.943099043e-10
-9.166658666e-13
9.200885321e-10
-7.645998518e-13
8.389466315e-10
-6.10868571e-13
7.507561918e-10
-4.606620649e-13
6.554172655e-10
-3.199372812e-13
5.528594333e-10
-1.954532852e-13
4.430431076e-10
-9.480834151e-14
3.259596652e-10
-2.650439498e-14
2.016300838e-10
7.009868311e-11
-2.681992363e-17
5.796489719e-11
-2.099756436e-16
1.696035854e-10
-8.80902822e-16
2.749871564e-10
-2.549399797e-15
3.743562256e-10
-5.805757652e-15
4.679454144e-10
-1.141351401e-14
5.559829225e-10
-2.006529303e-14
6.386897394e-10
-3.252420622e-14
7.162794374e-10
-4.950701939e-14
7.88957305e-10
-7.162031364e-14
8.569199127e-10
-9.935532543e-14
9.203543516e-10
-1.330714053e-13
9.794373854e-10
-1.729836285e-13
1.034334562e-09
-2.191613861e-13
1.085199195e-09
-2.715336461e-13
1.132171277e-09
-3.299046942e-13
1.175376344e-09
-3.939856963e-13
1.214924164e-09
-4.633142016e-13
1.250907473e-09
-5.372444688e-13
1.283400475e-09
-6.150349919e-13
1.312457814e-09
-6.95928628e-13
1.338113429e-09
-7.787865993e-13
1.360378759e-09
-8.62419412e-13
1.379242479e-09
-9.456194894e-13
1.394669694e-09
-1.026808809e-12
1.406601138e-09
-1.104416345e-12
1.414952984e-09
-1.176869764e-12
1.419618023e-09
-1.242352555e-12
1.420465113e-09
-1.299126554e-12
1.417340955e-09
-1.345589547e-12
1.410072138e-09
-1.380076757e-12
1.398466049e-09
-1.401134334e-12
1.3823142e-09
-1.407589911e-12
1.361394872e-09
-1.398448701e-12
1.335476347e-09
-1.37305213e-12
1.304320287e-09
-1.331118757e-12
1.267685509e-09
-1.272767928e-12
1.225332192e-09
-1.198613237e-12
1.177025479e-09
-1.109714737e-12
1.122539734e-09
-1.007615146e-12
1.061662245e-09
-8.943730356e-13
9.941966622e-10
-7.725791851e-13
9.199667383e-10
-6.453758938e-13
8.388194282e-10
-5.164848937e-13
7.506273009e-10
-3.902388457e-13
6.552910195e-10
-2.716319618e-13
5.527408265e-10
-1.663736668e-13
4.429378493e-10
-8.095133821e-14
3.25874243e-10
-2.272522211e-14
2.015718577e-10
7.007595783e-11
5.814842486e-16
5.796431571e-11
2.177032881e-15
1.696019898e-10
4.386891166e-15
2.749849465e-10
6.673596171e-15
3.743539389e-10
8.36532423e-15
4.679437226e-10
8.687087976e-15
5.559826008e-10
6.853798717e-15
6.386915727e-10
2.131992231e-15
7.162841593e-10
-6.261851126e-15
7.889656988e-10
-1.896789493e-14
8.569326187e-10
-3.651222403e-14
9.203718959e-10
-5.929249051e-14
9.794601656e-10
-8.756963496e-14
1.034362839e-09
-1.214686016e-13
1.085233094e-09
-1.60981073e-13
1.13221079e-09
-2.060088528e-13
1.175421372e-09
-2.563487461e-13
1.214974504e-09
-3.115484786e-13
1.250962673e-09
-3.711256389e-13
1.283460052e-09
-4.345071882e-13
1.312521196e-09
-5.009711882e-13
1.338179893e-09
-5.695824529e-13
1.36044737e-09
-6.393634526e-13
1.37931226e-09
-7.092187813e-13
1.394739549e-09
-7.778134701e-13
1.406669733e-09
-8.43848841e-13
1.415019019e-09
-9.058993927e-13
1.419680074e-09
-9.624389647e-13
1.420521652e-09
-1.012020244e-12
1.417390536e-09
-1.053215249e-12
1.410113333e-09
-1.084630601e-12
1.398497465e-09
-1.105032131e-12
1.382334602e-09
-1.113457739e-12
1.361403298e-09
-1.109042151e-12
1.335471931e-09
-1.091251407e-12
1.304302497e-09
-1.059863254e-12
1.267654121e-09
-1.014994445e-12
1.225287324e-09
-9.571996753e-13
1.176967684e-09
-8.873422494e-13
1.122469876e-09
-8.067031503e-13
1.061581606e-09
-7.169598576e-13
9.941069189e-10
-6.202014517e-13
9.198699798e-10
-5.189365544e-13
8.387181633e-10
-4.161145347e-13
7.505244788e-10
-3.151567808e-13
6.551900617e-10
-2.200158721e-13
5.526456855e-10
-1.352487389e-13
4.428530822e-10
-6.610986817e-14
3.25805104e-10
-1.86826225e-14
2.015244304e-10
7.005727516e-11
1.179658e-15
5.796313605e-11
4.525625972e-15
1.695986439e-10
9.592798462e-15
2.749798794e-10
1.579668229e-14
3.74347735e-10
2.238828197e-14
4.67937131e-10
2.861337753e-14
5.559763757e-10
3.360912563e-14
6.38686577e-10
3.660577035e-14
7.162811626e-10
3.685074549e-14
7.889654539e-10
3.36390066e-14
8.569358305e-10
2.641464888e-14
9.203791203e-10
1.474426567e-14
9.79471836e-10
-1.677136653e-15
1.034379261e-09
-2.302796045e-14
1.085254445e-09
-4.937890011e-14
1.132237141e-09
-8.072501053e-14
1.175452718e-09
-1.1685986e-13
1.215010639e-09
-1.574779283e-13
1.251003291e-09
-2.022074482e-13
1.283504781e-09
-2.506532354e-13
1.312569642e-09
-3.021123934e-13
1.338231353e-09
-3.558732014e-13
1.360501131e-09
-4.111891235e-13
1.379367575e-09
-4.670485941e-13
1.394795409e-09
-5.223840685e-13
1.406725068e-09
-5.761742836e-13
1.41507281e-09
-6.271415208e-13
1.419731041e-09
-6.740599741e-13
1.420568571e-09
-7.157877903e-13
1.417432264e-09
-7.510685709e-13
1.410148613e-09
-7.787971651e-13
1.398525193e-09
-7.979859685e-13
1.382353791e-09
-8.078596757e-13
1.361413171e-09
-8.077353438e-13
1.335471807e-09
-7.972103508e-13
1.304291972e-09
-7.761441556e-13
1.267633055e-09
-7.446943808e-13
1.225255874e-09
-7.033346888e-13
1.176926324e-09
-6.527922766e-13
1.122419334e-09
-5.941016169e-13
1.061522915e-09
-5.285797097e-13
9.940413971e-10
-4.578238464e-13
9.19799224e-10
-3.837029916e-13
8.386440425e-10
-3.08365043e-13
7.504491409e-10
-2.342605217e-13
6.551159572e-10
-1.642053391e-13
5.525756304e-10
-1.014743113e-13
4.427903512e-10
-4.993565673e-14
3.257535654e-10
-1.424533724e-14
2.014887401e-10
7.004302978e-11
1.767728332e-15
5.796136832e-11
6.841004347e-15
1.695935706e-10
1.473171171e-14
2.749719887e-10
2.480402514e-14
3.743376627e-10
3.626195692e-14
4.679256731e-10
4.834861214e-14
5.55964289e-10
6.016725245e-14
6.386747583e-10
7.088855593e-14
7.162704413e-10
7.978292651e-14
7.889565595e-10
8.614594082e-14
8.569294674e-10
8.93644849e-14
9.203759018e-10
8.897469511e-14
9.794722258e-10
8.463162323e-14
1.034383604e-09
7.608730106e-14
1.085262989e-09
6.319295995e-14
1.132250035e-09
4.594013554e-14
1.175469971e-09
2.444978637e-14
1.215032129e-09
-1.097802874e-15
1.251028838e-09
-3.048390043e-14
1.283534167e-09
-6.336624778e-14
1.312602524e-09
-9.920054336e-14
1.338267187e-09
-1.374568046e-13
1.360539387e-09
-1.775727537e-13
1.379407691e-09
-2.187055715e-13
1.394836542e-09
-2.600268543e-13
1.406766389e-09
-3.007491187e-13
1.415113532e-09
-3.398367284e-13
1.419770129e-09
-3.763305363e-13
1.420605065e-09
-4.093615584e-13
1.417465295e-09
-4.379244083e-13
1.410177176e-09
-4.611789555e-13
1.398548448e-09
-4.78426895e-13
1.382371039e-09
-4.890502992e-13
1.361423795e-09
-4.92589043e-13
1.335475346e-09
-4.887942e-13
1.304288177e-09
-4.776334026e-13
1.267621894e-09
-4.593453771e-13
1.225237586e-09
-4.343397201e-13
1.176901319e-09
-4.032497479e-13
1.122388244e-09
-3.669023401e-13
1.061486568e-09
-3.262918603e-13
9.940007866e-10
-2.825544143e-13
9.197554865e-10
-2.36934408e-13
8.385984225e-10
-1.907665091e-13
7.50402973e-10
-1.454777128e-13
6.550706684e-10
-1.026390257e-13
5.525327916e-10
-6.406798832e-14
4.427517801e-10
-3.200073646e-14
3.257214981e-10
-9.34917283e-15
2.014660884e-10
7.003368057e-11
2.347983869e-15
5.795902034e-11
9.12687447e-15
1.695867917e-10
1.980177244e-14
2.749613138e-10
3.367497849e-14
3.743237895e-10
4.996578462e-14
4.679093823e-10
6.784474098e-14
5.5594641e-10
8.645670192e-14
6.386561464e-10
1.04930828e-13
7.162519672e-10
1.224941963e-13
7.889389961e-10
1.384661564e-13
8.569134955e-10
1.522284884e-13
9.203621394e-10
1.632732861e-13
9.79461181e-10
1.712029328e-13
1.034375674e-09
1.757227167e-13
1.085258469e-09
1.766415217e-13
1.132249116e-09
1.739049526e-13
1.175472708e-09
1.675121283e-13
1.215038522e-09
1.575479477e-13
1.251038802e-09
1.44065467e-13
1.28354765e-09
1.2738811e-13
1.312619201e-09
1.078631348e-13
1.338286712e-09
8.580146694e-14
1.360561449e-09
6.168766594e-14
1.379431805e-09
3.611062394e-14
1.394862119e-09
9.622771323e-15
1.406792877e-09
-1.713013481e-14
1.415140285e-09
-4.341740905e-14
1.419796416e-09
-6.857887162e-14
1.420630226e-09
-9.196528428e-14
1.417488681e-09
-1.128760649e-13
1.410198087e-09
-1.3074302e-13
1.398566315e-09
-1.451590993e-13
1.382385455e-09
-1.557008363e-13
1.361434337e-09
-1.621426499e-13
1.335481787e-09
-1.644146548e-13
1.304290449e-09
-1.626218122e-13
1.267620101e-09
-1.570943352e-13
1.225232058e-09
-1.482382581e-13
1.176892463e-09
-1.366245504e-13
1.12237663e-09
-1.229186533e-13
1.061472862e-09
-1.078400418e-13
9.93985708e-10
-9.210896482e-14
9.197397555e-10
-7.637907396e-14
8.385826926e-10
-6.117915719e-14
7.503877731e-10
-4.687294545e-14
6.550563622e-10
-3.367663581e-14
5.525195954e-10
-2.175378662e-14
4.427398573e-10
-1.143264524e-14
3.257111771e-10
-3.592935087e-15
2.014582487e-10
7.003008761e-11
2.918833475e-15
5.79561015e-11
1.137094239e-14
1.695783396e-10
2.47764322e-14
2.749479083e-10
4.238249832e-14
3.743061835e-10
6.343120861e-14
4.678883336e-10
8.702355929e-14
5.559228177e-10
1.123594145e-13
6.386308105e-10
1.385401102e-13
7.162257865e-10
1.647845479e-13
7.889127517e-10
1.903877294e-13
8.568878923e-10
2.147516438e-13
9.203377755e-10
2.373423384e-13
9.794385903e-10
2.577245453e-13
1.034355292e-09
2.755754884e-13
1.085240618e-09
2.906560622e-13
1.132234036e-09
3.028151602e-13
1.175460549e-09
3.119719613e-13
1.215029365e-09
3.180629909e-13
1.251032711e-09
3.211177751e-13
1.283544595e-09
3.213076193e-13
1.312619011e-09
3.188223472e-13
1.338289197e-09
3.137628266e-13
1.360566508e-09
3.065234506e-13
1.379439045e-09
2.974400144e-13
1.394871202e-09
2.867865737e-13
1.406803531e-09
2.750652206e-13
1.415152006e-09
2.626957894e-13
1.419808785e-09
2.500189785e-13
1.420642903e-09
2.37483444e-13
1.417501217e-09
2.25459079e-13
1.410210111e-09
2.142222442e-13
1.398577551e-09
2.039112328e-13
1.382395766e-09
1.946864653e-13
1.361443561e-09
1.865365476e-13
1.335489937e-09
1.793233673e-13
1.304297662e-09
1.727439506e-13
1.267626681e-09
1.663864922e-13
1.225238416e-09
1.597673235e-13
1.176899082e-09
1.523217883e-13
1.122384076e-09