/*--------------------------------*- C++ -*----------------------------------*\
  =========                 |
  \\      /  F ield         | OpenFOAM: The Open Source CFD Toolbox
   \\    /   O peration     | Website:  https://openfoam.org
    \\  /    A nd           | Version:  7
     \\/     M anipulation  |
\*---------------------------------------------------------------------------*/
FoamFile
{
    version     2.0;
    format      ascii;
    class       volScalarField;
    location    "0.0015";
    object      rho;
}
// * * * * * * * * * * * * * * * * * * * * * * * * * * * * * * * * * * * * * //

dimensions      [1 -3 0 0 0 0 0];

internalField   nonuniform List<scalar> 
1167
(
933.9265898
933.8540241
933.698508
933.4688101
933.1702801
932.8071799
932.3841289
931.9050264
931.3739332
930.7947722
930.1712889
929.5072075
928.8061309
928.0715434
927.3068296
926.5152847
925.7001298
933.8082615
933.735747
933.5803434
933.350923
933.0526584
932.6899817
932.2673378
931.788838
931.2584513
930.6800962
930.0575505
929.394547
928.6946978
927.9614979
927.1983422
926.4085355
925.5953747
924.7621067
923.9116473
923.0469897
922.1712021
921.286857
920.3967377
919.5034204
918.6092464
917.7167273
916.8277974
915.944652
915.0691283
914.2028922
913.3477262
912.5049154
911.6758021
910.8616207
910.0632166
909.2814584
908.5172186
907.7709715
907.0431674
906.3341453
905.6441313
904.9732168
904.321441
903.6887001
903.0748168
902.4794471
901.9022931
901.3428594
900.8007033
900.2752339
933.690056
933.6175965
933.4623135
933.233208
932.935199
932.5729809
932.1507493
931.672878
931.1432266
930.565709
929.9441355
929.2822467
928.5836623
927.8518883
927.0903293
926.3023016
925.4912075
924.6600875
923.8119653
922.9499283
922.0768438
921.1953807
920.3083768
919.4182356
918.5274518
917.6383461
916.7529282
915.8734326
915.0015405
914.1390283
913.2875349
912.4484019
911.6229938
910.8124293
910.0175968
909.2393565
908.4786071
907.7357393
907.011237
906.3054365
905.6185594
904.9506955
904.3018852
903.672033
903.0609393
902.4682671
901.893737
901.3368446
900.7971515
900.2740681
933.5719784
933.4995775
933.3445339
933.1156445
932.817907
932.4561663
932.034479
931.5571525
931.028265
930.4516168
929.8310498
929.1703116
928.4730291
927.7427186
926.982794
926.1966837
925.3875881
924.5586475
923.7129115
922.8534948
921.9831296
921.1046307
920.2206823
919.3337171
918.4463169
917.5606142
916.6787506
915.802823
914.9345397
914.0757242
913.227874
912.3923877
911.5706517
910.7636712
909.9723771
909.1976582
908.4403305
907.7008107
906.9795801
906.2769721
905.5932042
904.9283644
904.2825067
903.6555122
903.0471827
902.4571805
901.885252
901.3308799
900.7936293
900.272912
933.4540334
933.381765
933.2269176
932.9982385
932.7008875
932.3395429
931.9184354
931.4417169
930.9135721
930.3378251
929.7182985
929.0587467
928.362803
927.6339937
926.8758122
926.0915791
925.2845155
924.4577843
923.6145318
922.7576844
921.8900544
921.0145448
920.1336452
919.2498786
918.3658324
917.4835215
916.6052046
915.7328145
914.8681168
914.0129715
913.1687362
912.3368755
911.5187698
910.7153412
909.9275534
909.1563297
908.4023864
907.6661842
906.9481958
906.2487518
905.5680655
904.9062271
904.2632989
903.6391309
903.0335421
902.4461989
901.8768384
901.3249653
900.7901367
900.2717657
933.336346
933.2641534
933.1094513
932.880995
932.5840744
932.2231166
931.8026123
931.3266034
930.79919
930.2243392
929.6058869
928.9475567
928.252988
927.5257857
926.7693445
925.9869883
925.1819888
924.3575148
923.5167508
922.6624933
921.7976339
920.9251015
920.0472564
919.1667466
918.285989
917.4070588
916.5322722
915.6634005
914.802312
913.9507618
913.1101148
912.2818906
911.4673418
910.6674346
909.8831222
909.1153622
908.364773
907.6318585
906.9170832
906.2207751
905.5431433
904.8842984
904.2442557
903.6228897
903.020018
902.435311
901.8684966
901.3191012
900.786674
900.2706291
933.2188107
933.1466885
932.9921403
932.7639496
932.4674443
932.1069266
931.6870147
931.2117407
930.6851645
930.1112428
929.4938654
928.8368001
928.1436886
927.4180649
926.6633594
925.8829122
925.0800071
924.2578976
923.4195663
922.5679197
921.7059154
920.8362914
919.9615066
919.0842526
918.2067776
917.3312591
916.4599451
915.5945728
914.737083
913.8890885
913.0520029
912.2273857
911.4163637
910.6199478
909.8390956
909.0747537
908.3274887
907.5978327
906.8862418
906.1930419
905.5184438
904.8625598
904.2253774
903.606789
903.0066108
902.4245172
901.8602269
901.3132878
900.7832412
900.2695024
933.1014234
933.0293757
932.8749902
932.6471744
932.351002
931.9910321
931.5716477
931.0971342
930.5714236
929.9985021
929.3822651
928.7264868
928.0348164
927.3107943
926.557858
925.7793518
924.9786094
924.1588495
923.3229741
922.4739566
921.6148183
920.7481094
919.8764181
919.0023884
918.1281898
917.256104
916.3882151
915.5263232
914.6724093
913.8279458
912.9943949
912.1733561
911.3658319
910.5728778
909.7954832
909.0345023
908.2905323
907.5641059
906.8556713
906.1655519
905.4939782
904.8410117
904.2066645
903.5908294
902.9933211
902.413818
901.8520297
901.3075254
900.7798385
900.2683856
932.9841895
932.9122203
932.7580428
932.5305766
932.234753
931.8753505
931.4565499
930.9827887
930.4579723
929.8860818
929.2710176
928.616559
927.9263627
927.2039757
926.4528412
925.6763074
924.8778142
924.0603661
923.2269677
922.3806689
921.5243381
920.6605504
919.7920042
918.9211466
918.0502178
917.1815531
916.3170745
915.4586679
914.6082845
913.7673279
912.9373217
912.1197977
911.315743
910.5262219
909.7522556
908.9946067
908.2539028
907.5306777
906.8253716
906.1383083
905.4697295
904.8196547
904.1881175
903.5750113
902.9801493
902.4032138
901.8439078
901.3018142
900.776466
900.2672787
932.8671142
932.7952276
932.6413571
932.4141611
932.118724
931.7598876
931.3417849
930.8687086
930.344815
929.7739859
929.1601262
928.5070195
927.81833
927.0976105
926.3483093
925.5738681
924.7775586
923.962445
923.131543
922.2879961
921.4344687
920.5736084
919.7082083
918.84052
917.9728853
917.1075992
916.2465161
915.391619
914.5447025
913.7072296
912.8807647
912.0667068
911.2660942
910.4799778
909.7094111
908.9550657
908.2175998
907.4975481
906.795343
906.1113332
905.4456983
904.7984895
904.1697372
903.5593356
902.9670961
902.3927051
901.8358643
901.2961545
900.7731241
900.2661818
932.7502488
932.678527
932.5248467
932.2979331
932.0029987
931.6446479
931.227265
930.7549801
930.2319559
929.662218
929.0495938
928.3978709
927.7107201
926.9916996
926.2443224
925.4719566
924.6778409
923.8650847
923.0367578
922.1959158
921.3452043
920.4873348
919.6250223
918.7605013
917.8961947
917.0342353
916.1765334
915.3251277
914.4816579
913.6476461
912.8246975
912.0140801
911.2168827
910.4341849
909.6669485
908.9158788
908.1816231
907.4647171
906.7655857
906.0846026
905.4218853
904.7775168
904.1515246
903.543803
902.9541623
902.3822927
901.8278946
901.2905468
900.7698128
900.265095
932.6336347
932.5620026
932.4085166
932.1818977
931.8874819
931.5296361
931.1129949
930.6415586
930.1194689
929.5507818
928.9394237
928.2891158
927.6035355
926.8863068
926.1408611
925.3705557
924.578659
923.7682824
922.9425841
922.1044233
921.2565387
920.4016951
919.5424399
918.6810837
917.8200981
916.9614548
916.1071252
915.2591884
914.4191457
913.5885827
912.7691168
911.9619147
911.1681066
910.3888035
909.6248671
908.8770457
908.145973
907.4321859
906.7361226
906.0581168
905.3982914
904.7567378
904.1334805
903.5284145
902.9413488
902.3719773
901.8199993
901.2849914
900.7665324
900.2640184
932.5171943
932.4456553
932.2923719
932.0661364
931.7721787
931.4149358
930.9989786
930.5284159
930.0073358
929.439783
928.8296805
928.1808193
927.4968756
926.7814105
926.0378816
925.2696636
924.4800102
923.6720941
922.8489807
922.0135139
921.1684767
920.316653
919.4604562
918.6022974
917.7445883
916.8892514
916.0383431
915.1937959
914.3571613
913.5300709
912.7140193
911.9102083
911.1197641
910.3438293
909.5831663
908.8385665
908.11065
907.399955
906.7069405
906.0318776
905.3749181
904.7361538
904.1156064
903.5131715
902.9286567
902.3617598
901.812179
901.2794889
900.7632833
900.262952
932.4009322
932.3294902
932.1764176
931.9506225
931.6570942
931.3005187
930.8852205
930.4155562
929.8955126
929.3291373
928.7203573
928.0729681
927.39065
926.6769688
925.9353837
925.1692786
924.3818915
923.5764861
922.7559426
921.9231814
921.0810699
920.232205
919.379067
918.524141
917.6696593
916.8176192
915.9701189
915.1289455
914.2957007
913.4720621
912.6594028
911.8589596
911.0718806
910.2992611
909.541846
908.8004416
908.075655
907.3680328
906.6780331
906.0058868
905.3517673
904.7157668
904.0979041
903.4980756
902.9160875
902.3516415
901.8044348
901.27404
900.7600659
900.2618961
932.2848534
932.2135122
932.0607408
931.8353158
931.5422327
931.1863428
930.7717897
930.3029835
929.7840028
929.2188329
928.6114033
927.9655148
927.284851
926.5729815
925.8333666
925.0693989
924.2843915
923.4814237
922.6634657
921.8334223
920.9942452
920.1483444
919.2982658
918.4465683
917.5953067
916.7465535
915.9024479
915.0646331
914.2347606
913.4145536
912.6052653
911.8081675
911.0244484
910.2550988
909.5009065
908.7626719
908.0409893
907.3364371
906.6494025
905.9801469
905.3288415
904.6955792
904.0803761
903.483129
902.9036431
902.341624
901.796768
901.2686457
900.7568807
900.2608507
932.1689628
932.0977696
931.9453031
931.7202215
931.4276638
931.0724121
930.6586743
930.1907015
929.6728094
929.108872
928.5028207
927.8584607
927.1794793
926.4694487
925.7318302
924.970071
924.1874204
923.3869047
922.5715494
921.7443085
920.9079946
920.0650645
919.218101
918.3695747
917.5215276
916.6761123
915.8353249
915.0008546
914.1743879
913.3575431
912.5516052
911.7578305
910.9774475
910.2113434
909.4603491
908.7252592
908.0066551
907.305147
906.6210517
905.9546609
905.306144
904.6755943
904.0630252
903.4683344
902.891326
902.3317094
901.7891802
901.2633071
900.7537285
900.2598161
932.0533553
931.9823017
931.8300705
931.6053444
931.3133867
930.9587307
930.5458293
930.0788259
929.5619354
928.9992569
928.394611
927.7518072
927.0745354
926.3663705
925.6308058
924.8712948
924.0909701
923.2929256
922.4801886
921.6557752
920.8223144
919.98236
919.1385371
918.2931551
917.4483168
916.6062327
915.7687471
914.9376072
914.1145382
913.3010289
912.4984214
911.7079629
910.9308784
910.1679965
909.4201761
908.6882061
907.972677
907.2741659
906.5929846
905.929433
905.2836789
904.6558161
904.0458555
903.4536956
902.8791395
902.3219006
901.7816736
901.2580258
900.7506101
900.2587927
931.937977
931.8670355
931.7150476
931.4906887
931.1993454
930.8453029
930.4332586
929.967252
929.4514731
928.8899898
928.2867759
927.6455551
926.9700195
926.2637871
925.5303319
924.7730177
923.9950382
923.1994815
922.3894414
921.5678034
920.7372016
919.9002341
919.0595448
918.2173048
917.3756695
916.5369072
915.702712
914.8748888
914.0552013
913.2450099
912.4457135
911.6585842
910.8847427
910.1250603
909.3803903
908.6515162
907.9390501
907.2434983
906.5652058
905.9044681
905.2614513
904.6362498
904.028872
903.4392172
902.8670877
902.312201
901.7742511
901.2528039
900.747527
900.2577809
931.8228015
931.7519759
931.6002396
931.3763803
931.0855437
930.7322368
930.3209658
929.8559789
929.3413623
928.7811856
928.179381
927.5397613
926.8660149
926.1617156
925.4303332
924.6752372
923.8996215
923.1065688
922.2992622
921.4803886
920.6526526
919.8187446
918.98112
918.1420197
917.3036511
916.4681332
915.6372182
914.8127358
913.9963752
913.1894854
912.393482
911.6096619
910.8390426
910.0825379
909.3409958
908.6151944
907.9057671
907.2131504
906.537722
905.8797732
905.2394684
904.6169024
904.0120814
903.4249056
902.8551765
902.3026157
901.7669168
901.2476443
900.7444807
900.2567812
931.7078336
931.6371277
931.4856525
931.2623054
930.9719859
930.619441
930.2089545
929.7450094
929.231579
928.6727339
928.0724094
927.43442
926.762457
926.0600937
925.3308072
924.5779506
923.8047183
923.014268
922.2096223
921.3935246
920.5686618
919.7378168
918.9032577
918.067295
917.2321895
916.399907
915.5722624
914.7511268
913.9380582
913.1344544
912.3417317
911.5611964
910.7937797
910.0404322
909.3019966
908.5792759
907.8728319
907.183127
906.5105387
905.8553543
905.2177363
904.5977804
903.9954902
903.4107671
902.8434116
902.2931497
901.7596747
901.2425501
900.7414733
900.2557942
931.5930785
931.522496
931.3714124
931.1484641
930.8586758
930.5069096
930.0973204
929.6343455
929.1221241
928.5646343
927.9658139
927.3294793
926.6593235
925.9589191
925.2317502
924.4811534
923.7103467
922.9225002
922.1205163
921.3072053
920.4852822
919.657442
918.82595
917.9931356
917.1612762
916.3322221
915.5078385
914.6900374
913.8802475
913.0799152
912.2904979
911.5131857
910.7489535
909.9987437
909.2633942
908.5437338
907.8402488
907.153433
906.4836614
905.8312174
905.1962617
904.5788904
903.9791051
903.396808
902.8317989
902.2838082
901.752529
901.2375243
900.7385063
900.2548206
931.4785504
931.4081715
931.2573991
931.0348599
930.7457071
930.3946452
929.9859952
929.5240014
929.0129969
928.4568849
927.8595919
927.224935
926.5566088
925.858185
925.1331542
924.3848359
923.616536
922.8312422
922.0319314
921.2214164
920.4024628
919.577604
918.7491798
917.9195681
917.0908926
916.2650596
915.4439649
914.6294483
913.8229231
913.0258468
912.239717
911.4656092
910.7045419
909.9574495
909.225173
908.5085418
907.8079927
907.1240424
906.4570639
905.8073363
905.1750189
904.5602085
903.9629046
903.3830101
902.8203242
902.2745811
901.7454736
901.2325679
900.7355788
900.25386
931.364317
931.2940674
931.1435744
930.9214544
930.6329724
930.2826084
929.8749158
929.4140241
928.9041567
928.3494445
927.7537011
927.1207441
926.4542691
925.7578462
925.034972
924.2890355
923.5231688
922.7404381
921.9438069
921.1361319
920.3201079
919.4982251
918.67286
917.8464384
917.0209305
916.1982985
915.3804934
914.5692098
913.7659199
912.9720682
912.1891915
911.4182537
910.6603169
909.9163083
909.1871032
908.4734424
907.7758047
907.0947006
906.4305016
905.7834839
905.1538051
904.5415621
903.9467506
903.3692723
902.8089221
902.2654347
901.7384986
901.2276821
900.7326985
900.2529162
931.2221784
931.1520922
931.0019524
930.780419
930.4927281
930.1432923
929.7367635
929.2772634
928.7689554
928.2159062
927.6220874
926.9912695
926.327122
925.6332439
924.9131527
924.1701097
923.4072907
922.6277811
921.8345196
921.0304649
920.2180878
919.3999601
918.5785191
917.7560731
916.9345856
916.1160257
915.3024132
914.4952643
913.6961239
912.9064865
912.1277376
911.3609017
910.6070266
909.8670286
909.1418207
908.4320336
907.7381916
907.0607912
906.4001951
905.7566665
905.1303506
904.5213329
903.9295923
903.355016
902.797383
902.2564188
901.7318031
901.223108
900.7300578
900.2520624
)
;

boundaryField
{
    front_top
    {
        type            wedge;
    }
    front_middle
    {
        type            wedge;
    }
    front_bottom
    {
        type            wedge;
    }
    back_top
    {
        type            wedge;
    }
    back_middle
    {
        type            wedge;
    }
    back_bottom
    {
        type            wedge;
    }
    axis_top
    {
        type            symmetryPlane;
    }
    axis_middle
    {
        type            symmetryPlane;
    }
    axis_bottom
    {
        type            symmetryPlane;
    }
    wall_top
    {
        type            calculated;
        value           nonuniform 0();
    }
    wall_middle
    {
        type            calculated;
        value           nonuniform 0();
    }
    wall_bottom
    {
        type            calculated;
        value           uniform 900.0184441;
    }
    inlet
    {
        type            calculated;
        value           nonuniform 0();
    }
    outlet
    {
        type            calculated;
        value           nonuniform List<scalar> 
50
(
931.2221784
931.1520922
931.0019524
930.780419
930.4927281
930.1432923
929.7367635
929.2772634
928.7689554
928.2159062
927.6220874
926.9912695
926.327122
925.6332439
924.9131527
924.1701097
923.4072907
922.6277811
921.8345196
921.0304649
920.2180878
919.3999601
918.5785191
917.7560731
916.9345856
916.1160257
915.3024132
914.4952643
913.6961239
912.9064865
912.1277376
911.3609017
910.6070266
909.8670286
909.1418207
908.4320336
907.7381916
907.0607912
906.4001951
905.7566665
905.1303506
904.5213329
903.9295923
903.355016
902.797383
902.2564188
901.7318031
901.223108
900.7300578
900.2520624
)
;
    }
    procBoundary0to1
    {
        type            processor;
        value           nonuniform List<scalar> 
51
(
934.0450361
933.9724228
933.8168021
933.5869423
933.2880588
932.924665
932.5011166
932.0214375
931.4896685
930.9098037
930.2854481
929.6203095
928.9179866
928.1820198
927.4157881
926.6225443
925.8055012
924.8647067
924.8647067
924.0119396
923.1447349
922.2662118
921.3789994
920.4857722
919.5892808
918.6917614
917.7957656
916.9033091
916.0164934
915.1373138
914.2673661
913.4084569
912.5619358
911.7290894
910.911251
910.1092412
909.3239312
908.5561676
907.8065091
907.0753724
906.3630993
905.6699202
904.9959281
904.3411612
903.7055175
903.0888182
902.4907199
901.9109203
901.3489241
900.8042845
900.2764094
)
;
    }
}


// ************************************************************************* //
