/*--------------------------------*- C++ -*----------------------------------*\
  =========                 |
  \\      /  F ield         | OpenFOAM: The Open Source CFD Toolbox
   \\    /   O peration     | Website:  https://openfoam.org
    \\  /    A nd           | Version:  7
     \\/     M anipulation  |
\*---------------------------------------------------------------------------*/
FoamFile
{
    version     2.0;
    format      ascii;
    class       volScalarField;
    location    "0.0015";
    object      T;
}
// * * * * * * * * * * * * * * * * * * * * * * * * * * * * * * * * * * * * * //

dimensions      [0 0 0 1 0 0 0];

internalField   nonuniform List<scalar> 
1167
(
459.4148774
459.5257075
459.7632865
460.1143363
460.5708414
461.1264795
461.7744038
462.5088842
463.3239511
464.2138478
465.1730855
466.1961993
467.277897
468.4130523
469.5966724
470.8238793
472.0898847
459.59561
459.70639
459.9438572
460.2945716
460.750786
461.3059157
461.953379
462.6871187
463.5013038
464.390182
465.3482124
466.3699141
467.4499787
468.58326
469.7647468
470.9895432
472.25274
473.5494766
474.8753788
476.2259212
477.5964296
478.9829737
480.3812616
481.7872951
483.1974155
484.6076665
486.0149754
487.4158316
488.8072673
490.1865654
491.5508031
492.8978326
494.2254002
495.5314108
496.8143828
498.0727892
499.3050895
500.5103798
501.6877923
502.8366385
503.9564125
505.0468288
506.1076887
507.1390305
508.1410166
509.1140867
510.0586113
510.9752909
511.864746
512.7278475
459.7762007
459.8869248
460.1242678
460.4745894
460.9305275
461.4850946
462.1320883
462.8650472
463.6783055
464.5661154
465.5228838
466.5431156
467.6214874
468.7528337
469.9321251
471.1544453
472.414718
473.7084002
475.030947
476.3776831
477.7442451
479.1265492
480.5202154
481.9215141
483.3265434
484.7316461
486.1336292
487.5289185
488.9147927
490.2883586
491.646922
492.9882447
494.3100381
495.6103924
496.8877582
498.1406226
499.3674038
500.5673335
501.7394913
502.883194
503.9979442
505.0834599
506.1395423
507.1662169
508.1636834
509.1323715
510.0726227
510.9851528
511.8705765
512.7297634
459.9566419
460.0673043
460.3043412
460.6544205
461.1100581
461.6640333
462.3103545
463.0426602
463.8549465
464.7416382
465.6970907
466.7157954
467.7924155
468.9217666
470.0988021
471.3184287
472.5758803
473.8664562
475.1855682
476.5284949
477.8910815
479.2690129
480.6581474
482.0547079
483.4546526
484.8546196
486.251206
487.6410543
489.0213999
490.3892736
491.7422062
493.0778693
494.3939384
495.6886869
496.9604974
498.207812
499.4291829
500.6238009
501.790751
502.9293559
504.0391261
505.1197835
506.1711084
507.1931654
508.1861533
509.150504
510.0865179
510.9949328
511.8763586
512.7316634
460.1369258
460.2474136
460.4842103
460.8340562
461.2892166
461.8427238
462.4883174
463.219872
464.0312183
464.9167415
465.8708245
466.8879456
467.9627551
469.0900506
470.2646596
471.4816523
472.7362279
474.0236479
475.33917
476.6783636
478.0369463
479.4104619
480.7950715
482.1868542
483.5817572
484.9766023
486.3678005
487.7522526
489.127103
490.4893235
491.8366675
493.1667014
494.4771106
495.7663021
497.0326066
498.2744116
499.4904303
500.6797841
501.841573
502.9751249
504.0799586
505.1557937
506.2023978
507.2198874
508.2084344
509.1684652
510.1002963
511.0046307
511.882092
512.7335474
460.3168615
460.4272612
460.6638953
461.0134883
461.4681039
462.021157
462.6659865
463.3966333
464.2070556
465.091417
466.044077
467.0595584
468.1324997
469.257574
470.429758
471.6441148
472.8957618
474.1799484
475.4918693
476.8272942
478.181814
479.5509292
480.9310013
482.3179107
483.7078713
485.0976085
486.4834407
487.8625235
489.2318376
490.5885212
491.9303159
493.2547004
494.5595647
495.8432454
497.1040914
498.3404353
499.551149
500.7352852
501.8919584
503.0205017
504.1204418
505.1914664
506.2334204
507.2463818
508.230526
509.1862736
510.1139575
511.0142459
511.8877766
512.7354154
460.4966098
460.6069297
460.8433879
461.1926621
461.6467557
462.1992725
462.8433536
463.5730529
464.3823879
465.2655353
466.2167697
467.2305432
468.3014872
469.4243818
470.5941458
471.8058142
473.0544826
474.3352656
475.6436692
476.9752893
478.3256103
479.6904291
481.065951
482.4479848
483.8330088
485.2175853
486.5981393
487.9718796
489.3356707
490.6868768
492.0231622
493.3419416
494.6413064
495.9195226
497.1749324
498.4058864
499.6113414
500.7903057
501.941908
503.0654864
504.1605655
505.2268314
506.2641756
507.2726479
508.2524271
509.2039285
510.1275008
511.0237781
511.893412
512.7372671
460.676177
460.7864108
461.0226795
461.3714672
461.8251643
462.3769791
463.0204109
463.7491224
464.5573252
465.4391482
466.3888547
467.4008841
468.4698537
469.5905309
470.7578208
471.9667485
473.2123295
474.4897287
475.7945756
477.122359
478.4684606
479.8289691
481.1998847
482.5770891
483.9571825
485.3365616
486.7119089
488.0803333
489.4386344
490.7843994
492.1152152
493.4284324
494.7223416
495.9951381
497.2451134
498.4707676
499.6710093
500.8448467
501.9914222
503.1100791
504.2003113
505.2618882
506.2946627
507.2986849
508.2741371
509.2214292
510.1409257
511.0332269
511.898998
512.7391027
460.8555549
460.9656961
461.2017056
461.5500453
462.0033213
462.5544034
463.1970986
463.9248341
464.7318597
465.6123096
466.5604367
467.5706701
468.6376124
469.7560182
470.9207808
472.1269166
473.3692725
474.6433439
475.9445982
477.2684011
478.6103713
479.9665566
481.3327811
482.7052346
484.0804043
485.4546005
486.8247613
488.1878587
489.5407386
490.8810978
492.206425
493.5141789
494.8026753
496.0700961
497.3146819
498.5350811
499.7301541
500.8989087
502.0405011
503.1542749
504.2397069
505.2966358
506.3248806
507.3244918
508.295655
509.2387749
510.1542275
511.0425918
511.9045344
512.7409218
461.0347348
461.1447772
461.3803758
461.7283887
462.1811854
462.7315362
463.3733191
464.1001811
464.9059844
465.785013
466.7315105
467.7398962
468.8047589
469.920841
471.0830251
472.2861795
473.5254093
474.7961146
476.0937426
477.41351
478.7513519
480.1032005
481.4647288
482.832432
484.202636
485.5717132
486.9367073
488.2944359
489.6419926
490.9769799
492.2968212
493.599187
494.8823121
496.1443999
497.3836404
498.5988285
499.7887765
500.9524918
502.0891442
503.1980378
504.2787512
505.331073
506.3548282
507.3500674
508.3169798
509.2559646
510.167401
511.0518723
511.9100208
512.7427246
461.2136385
461.323456
461.5588223
461.9064894
462.3586281
462.9083703
463.5492064
464.2750304
465.0796923
465.9572526
466.902071
467.9085582
468.9712899
470.0849974
471.2444599
472.4446569
473.680742
474.9480425
476.2419181
477.55772
478.8914106
480.2388192
481.5957397
482.9586925
484.3238735
485.6879103
487.047757
488.4001422
489.7424048
491.0720532
492.3864453
493.6834616
494.9612558
496.2179864
497.4519905
498.6620105
499.8468768
501.0055958
502.1373508
503.2414066
504.317443
505.3651984
506.3845039
507.3754103
508.3381102
509.2729973
510.180454
511.0610677
511.9154569
512.7445108
461.392202
461.5019099
461.7370371
462.0843393
462.5357952
463.0848985
463.7247532
464.4494503
465.2528694
466.1290223
467.0721129
468.0766515
469.137201
470.2483879
471.4051148
472.602375
473.8352733
475.0991314
476.3891677
477.701038
479.0305565
480.3734668
481.7258236
483.0840263
484.4441922
485.8032016
487.157912
488.5049861
489.8419827
491.1663089
492.4753029
493.767007
495.0395096
496.2909189
497.5197335
498.7246275
499.904454
501.0582188
502.1850841
503.2843806
504.3557808
505.3990103
506.413906
507.4005189
508.3590446
509.2898718
510.1933854
511.0701775
511.9208423
512.7462803
461.5705443
461.6801367
461.9150123
462.2618132
462.7126782
463.2609918
463.899953
464.6234837
465.4255436
466.3001586
467.2415358
468.2440753
469.3023383
470.4110457
471.5650571
472.7593359
473.9890069
475.2492932
476.5355555
477.8434708
479.1687816
480.5071994
481.8549874
483.2083852
484.5636026
485.917597
487.2670897
488.6089756
489.9407333
491.2596964
492.5633986
493.8498268
495.117076
496.3632041
497.5868698
498.7866789
499.9615073
501.1103595
502.2323652
503.3269571
504.3937622
505.4325065
506.4430324
507.425391
508.3797813
509.3065864
510.2061941
511.0792006
511.9261764
512.7480329
461.7486579
461.858129
462.0927399
462.4389517
462.8892696
463.4366936
464.0747989
464.797124
465.5977819
466.4707911
467.4103504
468.4108493
469.4668407
470.5730351
471.7242868
472.9155418
474.141947
475.3985803
476.6810886
477.9850274
479.3060046
480.6400225
481.9832376
483.3317708
484.682114
486.031105
487.3753981
488.7121176
490.0386626
491.3522928
492.6507357
493.9319226
495.193914
496.4348439
497.6533998
498.8481643
500.0180354
501.1620047
502.2792042
503.369133
504.431384
505.4656835
506.4718799
507.450024
508.4003178
509.3231391
510.2188784
511.0881359
511.9314584
512.7497684
461.9265349
462.0358788
462.2700863
462.6158162
463.0655623
463.6120681
464.2491843
464.9703648
465.7695787
466.6409379
467.5786342
468.5770468
469.6307199
470.734356
471.8828045
473.0709952
474.2939547
475.5470459
476.8257729
478.1257131
479.4423395
480.7719455
482.1105835
483.4542558
484.7997328
486.1437329
487.482844
488.8144184
490.1357756
491.4441022
492.7373171
494.0132963
495.2700358
496.5058381
497.7193226
498.9090819
500.0740357
501.213125
502.3255975
503.410904
504.4686418
505.4985374
506.5004446
507.4744141
508.4206509
509.3395273
510.2314362
511.0969819
511.9366877
512.7514865
462.1041677
462.213312
462.44711
462.7923987
463.2414491
463.7871088
464.4231271
465.1432
465.9409291
466.8105951
467.7463839
468.7426649
469.7939745
470.8950078
472.0406099
473.225623
474.4451699
475.6946933
476.9696089
478.2654143
479.5777983
480.902979
482.2369485
483.5758469
484.9164633
486.2553884
487.5894358
488.9158841
490.2319972
491.535128
492.8231453
494.0939496
495.3454734
496.5761849
497.7846359
498.9694288
500.1295049
501.2637547
502.3715405
503.4522653
504.5055306
505.5310631
506.5287216
507.4985569
508.4407766
509.3557474
510.2438648
511.1057366
511.9418628
512.7531869
462.2814107
462.3903679
462.6238629
462.9686914
463.4169312
463.9618093
464.5966962
465.3154511
466.1118281
466.9797587
467.9135964
468.9077015
469.9566033
471.05499
472.1976541
473.379425
474.5956042
475.8415272
477.1126039
478.4042323
479.7123865
481.0331307
482.3623883
483.6965516
485.0323134
486.3661708
487.6951771
489.0165189
490.3273976
491.6253726
492.9082216
494.1738598
495.4202253
496.6458817
497.8493359
499.0292005
500.1844027
501.3138876
502.4170266
503.4932101
504.5420435
505.5632536
506.5567044
507.5224463
508.4606894
509.371795
510.2561605
511.1143974
511.9469823
512.7548689
462.4583461
462.5671583
462.8003378
463.1446876
463.5920941
464.1361625
464.7698854
465.4872789
466.2821332
467.1484248
468.0802687
469.0721545
470.1186052
471.2142394
472.3538764
473.5324823
474.7452613
475.987555
477.2546668
478.5421964
479.8461081
481.1623949
482.4869482
483.816377
485.1472897
486.4760912
487.8000716
489.1163258
490.421993
491.7148376
492.9925463
494.252995
495.4942893
496.7149247
497.913418
499.0883911
500.2387372
501.3635166
502.4620482
503.5337303
504.5781723
505.5951008
506.584385
507.5460747
508.4803826
509.3876641
510.2683187
511.1229609
511.9520441
512.7565319
462.6350143
462.7436755
462.9765264
463.320194
463.7669317
464.3100019
464.9426888
465.6586846
466.4519366
467.316416
468.2462993
469.2359356
470.279851
471.3727293
472.5093936
473.6847986
474.8941453
476.1327816
477.3958681
478.679313
479.9789686
481.2906802
482.6106346
483.9353292
485.2612889
486.5851536
487.9041213
489.2152464
490.5157863
491.8035235
493.0761185
494.3314074
495.5676614
496.7833086
497.9768752
499.1469927
500.29252
501.4126315
502.5065943
503.5738145
504.6139051
505.626593
506.611752
507.5694316
508.4998466
509.4033466
510.2803327
511.1314223
511.9570454
512.758175
462.8114074
462.9199118
463.1524192
463.4953847
463.9414372
464.483468
465.1151006
465.8296636
466.621275
467.483902
468.4117137
469.3990536
470.4404402
471.5305556
472.664209
473.8363775
475.0422587
476.2770806
477.5362522
478.8155914
480.1109758
481.4181038
482.7334547
484.0534152
485.3744244
486.6933636
488.007331
489.3133144
490.6087798
491.8914318
493.1589302
494.4090959
495.6403388
496.8510288
498.0397012
499.204948
500.3457449
501.4612246
502.5506561
503.6134528
504.6492317
505.6577196
506.638795
507.5925068
508.519072
509.4188342
510.2921957
511.1397765
511.961983
512.7597971
462.9875176
463.0958592
463.3278227
463.6702595
464.1156045
464.6565692
465.2869731
466.0002122
466.7901466
467.6508833
468.5765842
469.5615878
470.600407
471.6877218
472.8183279
473.9872255
475.1895728
476.420575
477.6758275
478.9510406
480.2420465
481.5446789
482.8554204
484.1706267
485.4867093
486.8007309
488.1097099
489.4105683
490.7009776
491.9785651
493.2409246
494.4860633
495.7123221
496.9180841
498.1018933
499.2623005
500.3984043
501.5092878
502.5942244
503.6526354
504.6841416
505.6884698
506.6655031
507.6152899
508.5380492
509.4341185
510.303901
511.1480187
511.9668542
512.7613974
463.1633227
463.2713784
463.5029206
463.8448128
464.2892893
464.8293016
465.458411
466.1703085
466.9585523
467.8173622
468.740915
469.7235448
470.7597594
471.8442378
472.9717624
474.1373573
475.3360409
476.5633006
477.8146131
479.0856828
480.3722599
481.6704306
482.9765586
484.2869215
485.5981725
486.9072853
488.2112287
489.5070388
490.7924114
492.0649564
493.3222033
494.5623428
495.7836465
496.9845113
498.1634764
499.3190927
500.4505389
501.5568627
502.6373419
503.691405
504.7186763
505.7188825
506.6919113
507.6378105
508.5568015
509.4492159
510.3154587
511.1561472
511.9716606
512.7629761
463.3387184
463.446602
463.6777718
464.0191033
464.4626562
465.0017253
465.6295114
466.3398795
467.1265546
467.9834022
468.9047707
469.8849905
470.9185653
472.0001735
473.1245854
474.2867141
475.4818462
476.7053444
477.9527038
479.2195582
480.5017664
481.7954808
483.097006
484.4025429
485.7089853
487.0132183
488.3121223
489.6029635
490.8833442
492.1508948
493.4030822
494.6382759
495.8546782
497.0506983
498.2248207
499.3757397
500.5025673
501.604362
502.6804045
503.7301298
504.7531654
505.7492388
506.7182445
507.6602338
508.5754354
509.4641816
510.3268849
511.16416
511.9763895
512.7645273
463.5570202
463.6646858
463.8953833
464.2359166
464.6783871
465.2161895
465.8423703
466.5508031
467.3353018
468.1898279
469.1084822
470.0856646
471.1159149
472.1938638
473.3142454
474.4721674
475.6628462
476.8816112
478.1239934
479.3854633
480.6622291
481.9503132
483.245922
484.5454397
485.84577
487.1437859
488.436257
489.7207328
490.9947
492.2557084
493.5014669
494.7302487
495.9402793
497.1299863
498.297794
499.442575
500.5633695
501.6592591
502.7295405
503.773671
504.7912993
505.7821732
506.746216
507.6835041
508.5942937
509.4789339
510.3378532
511.1716617
511.9807251
512.7659307
)
;

boundaryField
{
    front_top
    {
        type            wedge;
    }
    front_middle
    {
        type            wedge;
    }
    front_bottom
    {
        type            wedge;
    }
    back_top
    {
        type            wedge;
    }
    back_middle
    {
        type            wedge;
    }
    back_bottom
    {
        type            wedge;
    }
    axis_top
    {
        type            symmetryPlane;
    }
    axis_middle
    {
        type            symmetryPlane;
    }
    axis_bottom
    {
        type            symmetryPlane;
    }
    wall_top
    {
        type            convectiveRadiativeHeatFlux;
        mode            convectiveRadiative;
        kappaMethod     fluidThermo;
        kappa           none;
        alphaAni        Anialpha;
        h               nonuniform 0();
        Ta              constant 513.15;
        emissivityNozzle 0.95;
        emissivityFilament 0.95;
        dNozzle         2;
        dFilament       1.65;
        refValue        nonuniform 0();
        refGradient     nonuniform 0();
        valueFraction   nonuniform 0();
        value           nonuniform 0();
    }
    wall_middle
    {
        type            fixedValue;
        value           nonuniform 0();
    }
    wall_bottom
    {
        type            fixedValue;
        value           uniform 513.15;
    }
    inlet
    {
        type            fixedValue;
        value           nonuniform 0();
    }
    outlet
    {
        type            zeroGradient;
    }
    procBoundary0to1
    {
        type            processor;
        value           nonuniform List<scalar> 
51
(
459.2340104
459.344885
459.5825636
459.933772
460.390702
460.9466493
461.5951723
462.3303525
463.1462533
464.0370105
464.9973538
466.0218459
467.1052042
468.2422188
469.4279077
470.6574617
471.9261084
473.3896838
473.3896838
474.7188918
476.0731222
477.4476243
478.8383816
480.2412756
481.6520368
483.0671737
484.482669
485.8953231
487.3017749
488.6988071
490.0838142
491.4538358
492.8066207
494.1400045
495.4517331
496.7403639
498.0043647
499.2422361
500.4529367
501.6356524
502.7896884
503.9145308
505.0098903
506.0755689
507.1116003
508.1181482
509.0956505
510.0444838
510.9653472
511.8588671
512.7259156
)
;
    }
}


// ************************************************************************* //
