/*--------------------------------*- C++ -*----------------------------------*\
  =========                 |
  \\      /  F ield         | OpenFOAM: The Open Source CFD Toolbox
   \\    /   O peration     | Website:  https://openfoam.org
    \\  /    A nd           | Version:  7
     \\/     M anipulation  |
\*---------------------------------------------------------------------------*/
FoamFile
{
    version     2.0;
    format      ascii;
    class       volScalarField;
    location    "0.0015";
    object      thermo:alpha;
}
// * * * * * * * * * * * * * * * * * * * * * * * * * * * * * * * * * * * * * //

dimensions      [1 -1 -1 0 0 0 0];

internalField   nonuniform List<scalar> 
1167
(
0.0001187880409
0.0001187757062
0.0001187492715
0.0001187102273
0.000118659483
0.0001185977631
0.0001185200308
0.000118431751
0.0001183322713
0.0001182172726
0.0001180934732
0.0001179616127
0.0001178212184
0.0001176648239
0.0001175020156
0.0001173272512
0.00011714199
0.0001187679274
0.0001187556014
0.0001187291858
0.0001186901888
0.0001186394896
0.0001185763874
0.0001184985108
0.0001184103421
0.0001183093411
0.0001181945024
0.0001180708892
0.0001179392427
0.0001177974941
0.0001176413951
0.0001174789185
0.0001173029902
0.0001171181822
0.0001169251101
0.0001167195784
0.0001165099146
0.0001162897409
0.0001160606806
0.0001158290523
0.0001155873459
0.0001153449721
0.0001150905399
0.0001148371309
0.0001145737766
0.0001143114678
0.0001140424653
0.0001137738044
0.000113509025
0.0001132387447
0.0001129675982
0.0001126934401
0.0001124249978
0.0001121611621
0.0001118939736
0.0001116333885
0.0001113733049
0.0001111161139
0.0001108660418
0.0001106231035
0.0001103783222
0.000110140465
0.0001099010804
0.0001096689413
0.0001094439296
0.0001092258671
0.000109009314
0.0001187478348
0.0001187355181
0.000118709123
0.0001186701795
0.0001186195238
0.0001185548288
0.0001184770281
0.0001183889752
0.000118286462
0.0001181717896
0.0001180483695
0.0001179169442
0.0001177738546
0.0001176180591
0.0001174559224
0.0001172788463
0.0001170945079
0.000116900455
0.0001166954881
0.000116485057
0.0001162669381
0.0001160359306
0.0001158051443
0.0001155642973
0.0001153216547
0.0001150681956
0.0001148157878
0.0001145524391
0.0001142912184
0.0001140224017
0.0001137548945
0.0001134912706
0.0001132213833
0.0001129507067
0.000112677775
0.0001124105408
0.0001121473375
0.0001118813589
0.0001116219561
0.0001113626042
0.0001111065824
0.0001108576474
0.0001106158144
0.0001103718643
0.0001101349644
0.0001098965837
0.0001096654999
0.0001094415103
0.0001092244385
0.0001090088279
0.0001187277639
0.0001187154572
0.0001186891028
0.000118650196
0.0001185995865
0.0001185333045
0.0001184556041
0.0001183676516
0.0001182636351
0.0001181491354
0.000118025915
0.0001178947183
0.0001177503006
0.0001175948168
0.000117433028
0.0001172548424
0.0001170709582
0.0001168759398
0.0001166715496
0.0001164603602
0.000116244291
0.0001160124734
0.0001157814167
0.000115541429
0.0001152985254
0.0001150460364
0.0001147937141
0.0001145312843
0.0001142711448
0.000114002514
0.0001137361514
0.000113473673
0.0001132041752
0.000112933964
0.0001126622473
0.0001123962223
0.0001121336328
0.000111868853
0.0001116106215
0.0001113519946
0.0001110971317
0.0001108493239
0.0001106084005
0.0001103654631
0.0001101294313
0.0001098921245
0.0001096620871
0.0001094391112
0.0001092230218
0.0001090083458
0.0001187077156
0.0001186954313
0.0001186691103
0.0001186302393
0.0001185783969
0.0001185118154
0.0001184342218
0.0001183457305
0.0001182408616
0.0001181265408
0.0001180035271
0.0001178725659
0.0001177268334
0.0001175716691
0.0001174091887
0.0001172309551
0.0001170475328
0.0001168515641
0.0001166477741
0.000116435823
0.0001162217983
0.0001159894022
0.0001157578669
0.0001155187446
0.0001152755816
0.0001150240595
0.0001147716796
0.0001145103097
0.0001142512444
0.0001139827994
0.0001137175725
0.0001134560808
0.0001131871183
0.0001129173684
0.0001126468557
0.0001123820308
0.0001121200472
0.0001118564552
0.0001115993846
0.000111341476
0.0001110877617
0.0001108410726
0.0001106009582
0.000110359116
0.0001101239449
0.0001098877076
0.0001096587031
0.0001094367323
0.0001092216171
0.0001090078677
0.000118687711
0.0001186754396
0.0001186491433
0.0001186103102
0.0001185568729
0.0001184903626
0.0001184128802
0.0001183228735
0.0001182181498
0.0001181040069
0.0001179812065
0.0001178504879
0.0001177034537
0.0001175486315
0.0001173849917
0.0001172071846
0.0001170242314
0.0001168273318
0.0001166241432
0.0001164114444
0.0001161988773
0.0001159664957
0.0001157344925
0.0001154962514
0.0001152528204
0.0001150022621
0.0001147498289
0.0001144895131
0.0001142307804
0.0001139632555
0.0001136991558
0.0001134380038
0.0001131702107
0.0001129009181
0.0001126315988
0.0001123679632
0.00011210658
0.0001118441652
0.0001115882449
0.0001113310481
0.0001110784723
0.000110832899
0.0001105935796
0.0001103528231
0.0001101185053
0.0001098833283
0.0001096553479
0.0001094343737
0.0001092202243
0.0001090073938
0.0001186677323
0.0001186554729
0.0001186292027
0.0001185900168
0.0001185353825
0.0001184689533
0.0001183915801
0.0001183000662
0.0001181955088
0.0001180815504
0.0001179589634
0.0001178277479
0.0001176801837
0.0001175256977
0.0001173609043
0.0001171835311
0.0001170010539
0.0001168032572
0.0001166006565
0.000116387224
0.0001161740618
0.0001159437512
0.0001157112911
0.0001154739309
0.0001152302395
0.0001149806537
0.0001147281595
0.0001144688921
0.0001142102879
0.00011394388
0.0001136808993
0.0001134200847
0.000113153451
0.0001128846119
0.0001126164807
0.000112354019
0.0001120932306
0.0001118319824
0.0001115772024
0.000111320711
0.000111069266
0.0001108247963
0.000110586265
0.0001103465847
0.0001101131128
0.0001098789869
0.0001096520217
0.0001094320355
0.0001092188436
0.000109006924
0.0001186477787
0.000118635532
0.0001186092895
0.0001185684997
0.0001185139268
0.0001184475985
0.0001183703224
0.0001182773098
0.0001181729243
0.0001180591645
0.000117936804
0.000117804262
0.0001176570047
0.0001175028596
0.0001173369269
0.0001171599948
0.0001169774326
0.0001167793201
0.0001165773129
0.0001163631599
0.0001161494144
0.0001159211677
0.0001156882685
0.0001154517808
0.0001152078363
0.0001149592291
0.0001147066691
0.0001144484444
0.0001141899699
0.0001139246713
0.000113662801
0.0001134023217
0.0001131368381
0.0001128684489
0.000112601505
0.0001123401974
0.0001120799986
0.0001118199068
0.0001115662568
0.0001113104646
0.0001110601469
0.0001108167646
0.0001105790144
0.0001103404009
0.0001101077674
0.0001098746835
0.0001096487247
0.0001094297177
0.000109217475
0.0001090064582
0.0001186278512
0.0001186156179
0.0001185889284
0.0001185470153
0.0001184925067
0.0001184262829
0.0001183486757
0.0001182546053
0.0001181503973
0.0001180368422
0.0001179147146
0.0001177808583
0.0001176339148
0.0001174801178
0.0001173130596
0.0001171365758
0.0001169530733
0.0001167555195
0.0001165541109
0.0001163403609
0.0001161249339
0.0001158987437
0.0001156654285
0.000115429799
0.0001151856087
0.0001149379768
0.0001146853552
0.0001144281747
0.0001141698243
0.0001139056274
0.0001136448708
0.0001133847138
0.0001131203707
0.000112852428
0.0001125866614
0.0001123264979
0.0001120668837
0.0001118079381
0.0001115554083
0.00011130031
0.0001110511086
0.0001108088042
0.0001105718281
0.000110334272
0.0001101024696
0.0001098704183
0.000109645458
0.0001094274206
0.0001092161185
0.0001090059967
0.0001186079507
0.0001185957314
0.0001185674278
0.0001185255645
0.0001184711271
0.0001184050076
0.0001183258879
0.0001182319534
0.0001181279287
0.0001180145844
0.0001178926959
0.0001177575372
0.0001176109145
0.0001174574726
0.0001172893025
0.0001171132943
0.0001169288444
0.0001167318547
0.0001165310495
0.0001163179654
0.0001161006187
0.0001158764777
0.0001156427557
0.0001154079837
0.0001151635634
0.0001149168946
0.0001146642157
0.0001144080867
0.0001141498492
0.0001138867468
0.0001136271027
0.0001133672594
0.000113104048
0.0001128365486
0.0001125719493
0.0001123129202
0.0001120538857
0.0001117960763
0.0001115446567
0.0001112902555
0.0001110421513
0.0001108009152
0.0001105647064
0.0001103281982
0.0001100972194
0.0001098661916
0.0001096422228
0.0001094251442
0.0001092147743
0.0001090055393
0.0001185874923
0.0001185742768
0.0001185459595
0.0001185041483
0.0001184498035
0.0001183837735
0.0001183031487
0.0001182093714
0.0001181055193
0.0001179923916
0.0001178707485
0.0001177342993
0.0001175880042
0.000117434924
0.0001172656693
0.0001170901327
0.0001169047455
0.0001167083255
0.0001165072941
0.0001162957132
0.0001160764671
0.0001158535653
0.0001156202479
0.0001153863329
0.000115141701
0.0001148959805
0.0001146432488
0.0001143881658
0.000114130043
0.0001138680279
0.0001136094885
0.0001133499578
0.0001130878692
0.0001128208241
0.0001125573684
0.0001122994641
0.0001120410045
0.0001117843214
0.0001115340023
0.0001112802921
0.0001110332754
0.000110793098
0.0001105576497
0.0001103221799
0.0001100920173
0.0001098620036
0.0001096390173
0.0001094228887
0.0001092134425
0.0001090050861
0.0001185660049
0.0001185528059
0.0001185245245
0.0001184827675
0.0001184285182
0.0001183625813
0.0001182804591
0.0001181868503
0.0001180831838
0.0001179702648
0.000117848873
0.0001177111453
0.0001175651845
0.0001174115738
0.0001172421555
0.0001170670872
0.000116880776
0.0001166849312
0.0001164831761
0.000116273603
0.0001160524776
0.0001158303936
0.0001155979034
0.0001153648447
0.000115120008
0.0001148752329
0.0001146224539
0.0001143684102
0.000114110404
0.0001138494724
0.0001135920271
0.0001133328077
0.0001130718334
0.0001128052409
0.0001125429184
0.0001122861295
0.0001120282402
0.0001117726738
0.0001115231352
0.00011127042
0.0001110244812
0.000110785353
0.0001105506583
0.0001103162174
0.0001100868635
0.0001098578546
0.0001096358416
0.0001094206543
0.0001092121231
0.0001090046371
0.0001185445495
0.0001185313677
0.0001185031236
0.0001184614372
0.0001184072724
0.0001183404128
0.00011825782
0.0001181643846
0.0001180609185
0.0001179482247
0.0001178262321
0.0001176880888
0.0001175424765
0.0001173877339
0.0001172187512
0.0001170441574
0.0001168569354
0.0001166616852
0.0001164592041
0.0001162516336
0.0001160288244
0.0001158073836
0.000115575721
0.0001153429911
0.0001150984823
0.0001148546497
0.0001146018466
0.0001143488185
0.0001140909308
0.0001138310902
0.0001135747175
0.0001133158086
0.0001130559402
0.0001127897976
0.0001125285991
0.0001122729164
0.0001120155931
0.0001117611338
0.000111512258
0.0001112606397
0.0001110157692
0.0001107776806
0.0001105437327
0.0001103103113
0.0001100817586
0.000109853745
0.0001096326962
0.0001094184411
0.0001092108163
0.0001090041924
0.0001185231269
0.000118509963
0.0001184817577
0.0001184401526
0.0001183860669
0.000118317694
0.0001182352321
0.0001181419751
0.0001180387148
0.0001179262548
0.000117802957
0.0001176651272
0.000117519861
0.0001173639973
0.0001171954564
0.0001170213427
0.0001168332229
0.0001166385795
0.0001164353769
0.0001162298038
0.0001160064394
0.0001157845344
0.0001155536993
0.0001153207109
0.0001150771221
0.0001148342294
0.0001145814065
0.0001143293892
0.0001140716222
0.000113812866
0.0001135575591
0.00011329896
0.0001130397978
0.0001127744936
0.0001125144104
0.0001122598249
0.0001120030633
0.0001117497042
0.0001115014833
0.0001112509521
0.0001110071401
0.0001107700817
0.0001105368737
0.0001103044622
0.000110076703
0.0001098496753
0.0001096295814
0.0001094162495
0.0001092095222
0.0001090037521
0.0001185017382
0.0001184885928
0.000118460443
0.0001184189061
0.0001183649024
0.0001182950232
0.0001182127091
0.0001181196226
0.0001180165733
0.0001179043527
0.0001177797606
0.0001176422503
0.0001174973363
0.000117340364
0.0001171722708
0.0001169986429
0.00011680966
0.0001166156056
0.0001164116934
0.0001162081125
0.0001159842034
0.0001157618441
0.0001155318368
0.0001152985971
0.0001150559263
0.0001148139705
0.0001145611322
0.000114310121
0.0001140524771
0.000113794799
0.0001135405511
0.0001132822614
0.0001130235104
0.000112759329
0.0001125003524
0.0001122468555
0.0001119906515
0.0001117383916
0.0001114908117
0.000111241358
0.0001109985949
0.0001107625571
0.0001105300823
0.000110298671
0.0001100716977
0.0001098456461
0.0001096264977
0.0001094140798
0.000109208241
0.0001090033162
0.0001184803841
0.000118467266
0.0001184391724
0.0001183976987
0.0001183429401
0.000118272401
0.0001181902488
0.0001180973278
0.0001179944947
0.0001178825188
0.0001177566432
0.0001176194583
0.0001174749025
0.000117316834
0.0001171491945
0.0001169753691
0.0001167862248
0.0001165927631
0.0001163881535
0.0001161844495
0.0001159621145
0.0001157393109
0.0001155101465
0.0001152766484
0.0001150348939
0.0001147929237
0.0001145410219
0.0001142910129
0.0001140335103
0.0001137768885
0.0001135236931
0.0001132657125
0.0001130073711
0.0001127443042
0.0001124864257
0.0001122340086
0.0001119783584
0.0001117271884
0.0001114802444
0.0001112318585
0.0001109901348
0.0001107551081
0.0001105233594
0.0001102929386
0.0001100667436
0.0001098416583
0.0001096234458
0.0001094119325
0.0001092069732
0.0001090028847
0.0001184590822
0.0001184459898
0.0001184179396
0.0001183765314
0.0001183202491
0.0001182498283
0.0001181678422
0.0001180751136
0.0001179724794
0.0001178607535
0.0001177336053
0.0001175967517
0.0001174525598
0.0001172934072
0.0001171262346
0.0001169514977
0.0001167629155
0.000116570051
0.0001163647559
0.0001161604957
0.0001159401717
0.0001157169334
0.0001154886187
0.0001152548633
0.0001150140235
0.0001147719875
0.0001145210751
0.0001142720638
0.0001140147078
0.0001137591338
0.0001135069848
0.0001132493179
0.0001129913801
0.0001127294196
0.000112472631
0.0001122212852
0.0001119661928
0.0001117160958
0.0001114697829
0.0001112224553
0.0001109817613
0.0001107477361
0.0001105167068
0.0001102872666
0.0001100618421
0.0001098377131
0.0001096204265
0.0001094098083
0.0001092057189
0.000109002458
0.0001184378225
0.0001184247508
0.0001183967454
0.0001183554048
0.0001182976049
0.000118227306
0.0001181454901
0.0001180529594
0.0001179505459
0.0001178390573
0.0001177106471
0.0001175741305
0.0001174303083
0.000117270093
0.0001171033997
0.0001169277469
0.0001167397315
0.0001165474682
0.0001163424808
0.0001161366939
0.0001159183741
0.0001156947124
0.0001154672456
0.0001152332405
0.0001149933139
0.0001147512175
0.0001145012908
0.0001142532732
0.0001139960664
0.0001137415347
0.0001134904259
0.000113233084
0.0001129755379
0.0001127146761
0.0001124589693
0.0001122086865
0.0001119541529
0.0001117051155
0.0001114594288
0.00011121315
0.0001109734764
0.0001107404431
0.0001105101263
0.0001102816568
0.0001100569947
0.0001098338118
0.0001096174411
0.000109407708
0.0001092044788
0.000109002036
0.0001184166002
0.0001184035498
0.0001183755908
0.0001183327571
0.0001182750084
0.0001182048555
0.0001181231931
0.0001180308649
0.0001179286822
0.0001178159074
0.0001176877826
0.0001175516069
0.000117406962
0.0001172468951
0.0001170806729
0.0001169041162
0.000116716672
0.0001165250139
0.000116320688
0.0001161130428
0.000115896721
0.0001156726636
0.0001154460261
0.0001152117788
0.0001149727834
0.0001147306127
0.0001144816687
0.0001142340552
0.0001139775854
0.000113724091
0.0001134740168
0.0001132170002
0.0001129598452
0.0001127000746
0.0001124454419
0.0001121962142
0.0001119422362
0.0001116942497
0.0001114491847
0.0001112039454
0.0001109652826
0.0001107332317
0.0001105036206
0.0001102761115
0.0001100522038
0.0001098299565
0.0001096144911
0.0001094056328
0.0001092032536
0.0001090016191
0.0001183954161
0.0001183823878
0.0001183544543
0.0001183101063
0.0001182524602
0.0001181824586
0.0001181009521
0.0001180088307
0.0001179068835
0.0001177928179
0.0001176650082
0.0001175291796
0.0001173834263
0.0001172237993
0.0001170580535
0.0001168806048
0.0001166937367
0.0001165015344
0.0001162990255
0.0001160895407
0.0001158752108
0.0001156507669
0.0001154249587
0.0001151904769
0.0001149524117
0.0001147101719
0.0001144622078
0.0001142146999
0.0001139592644
0.0001137068024
0.0001134576773
0.0001132010665
0.0001129443027
0.0001126856162
0.0001124320502
0.0001121833812
0.0001119304439
0.0001116835
0.0001114390525
0.0001111948437
0.0001109571824
0.0001107261043
0.0001104971921
0.0001102706334
0.0001100474718
0.0001098261491
0.0001096115783
0.0001094035838
0.000109202044
0.0001090012076
0.0001183742712
0.0001183612657
0.0001183317707
0.0001182875019
0.0001182299613
0.0001181601143
0.0001180787859
0.0001179868572
0.0001178851501
0.0001177698034
0.0001176423139
0.0001175068376
0.000117359987
0.0001172008053
0.0001170355407
0.0001168572116
0.0001166709297
0.0001164780326
0.000116277492
0.000116066186
0.0001158530099
0.0001156290197
0.0001154040415
0.0001151693361
0.0001149321963
0.0001146898934
0.0001144429063
0.000114195508
0.0001139411025
0.0001136896682
0.0001134408335
0.0001131852824
0.0001129289102
0.0001126713011
0.0001124187948
0.0001121706556
0.0001119187778
0.0001116728683
0.0001114290345
0.0001111858471
0.000110949178
0.0001107190633
0.0001104908435
0.0001102652247
0.000110042801
0.0001098223918
0.0001096087042
0.0001094015624
0.0001092008506
0.0001090008016
0.0001183530441
0.0001183390696
0.0001183091321
0.0001182649445
0.0001182075301
0.000118137823
0.0001180566811
0.0001179649472
0.0001178634817
0.0001177468634
0.0001176196991
0.00011748458
0.0001173366429
0.0001171779113
0.0001170131327
0.0001168339345
0.0001166482583
0.0001164546612
0.0001162560844
0.0001160429748
0.0001158306013
0.0001156074178
0.0001153832696
0.0001151483641
0.0001149121319
0.0001146697714
0.0001144237696
0.0001141764731
0.0001139230933
0.0001136726819
0.0001134241387
0.0001131696411
0.00011291366
0.0001126571214
0.0001124056703
0.0001121580553
0.0001119072287
0.0001116623452
0.0001114191207
0.0001111769458
0.0001109412601
0.0001107121
0.0001104845664
0.0001102598786
0.0001100381857
0.0001098186806
0.0001096058664
0.0001093995688
0.0001091996731
0.000109000401
0.0001183303618
0.000118316413
0.000118286531
0.0001182424266
0.0001181851454
0.0001181155768
0.000118034625
0.00011794311
0.0001178418703
0.0001177239893
0.0001175971549
0.0001174623977
0.0001173133841
0.0001171551072
0.0001169908187
0.0001168107822
0.0001166256942
0.0001164314061
0.0001162347881
0.0001160205408
0.0001158083184
0.0001155859401
0.0001153626196
0.0001151275168
0.0001148921877
0.0001146497696
0.0001144047534
0.0001141575485
0.000113905185
0.0001136557867
0.0001134075278
0.0001131540723
0.0001128984739
0.0001126429942
0.0001123925978
0.0001121454882
0.000111895704
0.0001116518395
0.0001114092201
0.0001111680552
0.000110933353
0.0001107051498
0.0001104783073
0.0001102545557
0.0001100335997
0.0001098150017
0.0001096030609
0.0001093976037
0.0001091985146
0.0001090000074
0.0001183021387
0.0001182882223
0.0001182584104
0.0001182144225
0.0001181572984
0.0001180879141
0.0001180071934
0.0001179159547
0.0001178133036
0.0001176955588
0.0001175691342
0.0001174348324
0.0001172844872
0.0001171267886
0.0001169616135
0.0001167820413
0.0001165976897
0.0001164025545
0.0001162083776
0.0001159934793
0.0001157807146
0.0001155593523
0.0001153362125
0.0001151017562
0.0001148675732
0.0001146251204
0.0001143813604
0.0001141343176
0.0001138832577
0.0001136351834
0.000113387324
0.0001131352171
0.0001128801749
0.0001126260724
0.0001123770486
0.0001121306621
0.0001118822369
0.0001116396985
0.0001113979238
0.0001111580594
0.0001109246108
0.0001106976097
0.0001104716591
0.0001102490319
0.0001100289585
0.0001098113754
0.0001096003679
0.0001093957639
0.0001091974525
0.0001089996514
)
;

boundaryField
{
    front_top
    {
        type            wedge;
    }
    front_middle
    {
        type            wedge;
    }
    front_bottom
    {
        type            wedge;
    }
    back_top
    {
        type            wedge;
    }
    back_middle
    {
        type            wedge;
    }
    back_bottom
    {
        type            wedge;
    }
    axis_top
    {
        type            symmetryPlane;
    }
    axis_middle
    {
        type            symmetryPlane;
    }
    axis_bottom
    {
        type            symmetryPlane;
    }
    wall_top
    {
        type            calculated;
        value           nonuniform 0();
    }
    wall_middle
    {
        type            calculated;
        value           nonuniform 0();
    }
    wall_bottom
    {
        type            calculated;
        value           uniform 0.0001089022317;
    }
    inlet
    {
        type            calculated;
        value           nonuniform 0();
    }
    outlet
    {
        type            calculated;
        value           nonuniform List<scalar> 
50
(
0.0001183021387
0.0001182882223
0.0001182584104
0.0001182144225
0.0001181572984
0.0001180879141
0.0001180071934
0.0001179159547
0.0001178133036
0.0001176955588
0.0001175691342
0.0001174348324
0.0001172844872
0.0001171267886
0.0001169616135
0.0001167820413
0.0001165976897
0.0001164025545
0.0001162083776
0.0001159934793
0.0001157807146
0.0001155593523
0.0001153362125
0.0001151017562
0.0001148675732
0.0001146251204
0.0001143813604
0.0001141343176
0.0001138832577
0.0001136351834
0.000113387324
0.0001131352171
0.0001128801749
0.0001126260724
0.0001123770486
0.0001121306621
0.0001118822369
0.0001116396985
0.0001113979238
0.0001111580594
0.0001109246108
0.0001106976097
0.0001104716591
0.0001102490319
0.0001100289585
0.0001098113754
0.0001096003679
0.0001093957639
0.0001091974525
0.0001089996514
)
;
    }
    procBoundary0to1
    {
        type            processor;
        value           nonuniform List<scalar> 
51
(
0.0001188081745
0.0001187958317
0.0001187693792
0.0001187303075
0.0001186795031
0.0001186177333
0.000118541587
0.000118453201
0.0001183552169
0.0001182401134
0.0001181161408
0.0001179840703
0.0001178446165
0.0001176883445
0.0001175252129
0.0001173516283
0.0001171659379
0.0001169499056
0.0001169499056
0.0001167438162
0.0001165342376
0.000116312701
0.0001160856108
0.0001158531425
0.0001156105773
0.0001153677339
0.0001151130715
0.0001148586572
0.0001145953005
0.0001143318964
0.0001140627206
0.0001137928837
0.0001135269387
0.0001132562635
0.0001129846404
0.0001127092441
0.0001124395822
0.0001121751075
0.0001119066976
0.0001116449193
0.000111384097
0.0001111257263
0.0001108745071
0.0001106304538
0.0001103848383
0.00011014589
0.0001099056145
0.0001096724113
0.0001094463689
0.0001092273075
0.0001090098042
)
;
    }
}


// ************************************************************************* //
