/*--------------------------------*- C++ -*----------------------------------*\
  =========                 |
  \\      /  F ield         | OpenFOAM: The Open Source CFD Toolbox
   \\    /   O peration     | Website:  https://openfoam.org
    \\  /    A nd           | Version:  7
     \\/     M anipulation  |
\*---------------------------------------------------------------------------*/
FoamFile
{
    version     2.0;
    format      ascii;
    class       volVectorField;
    location    "0.0015";
    object      U;
}
// * * * * * * * * * * * * * * * * * * * * * * * * * * * * * * * * * * * * * //

dimensions      [0 1 -1 0 0 0 0];

internalField   nonuniform List<vector> 
1167
(
(-1.232173687e-06 1.01401312e-17 -0.05026142903)
(-3.21763913e-06 -1.167975482e-18 -0.05026033701)
(-5.10091188e-06 -4.999500112e-18 -0.05025794557)
(-7.06205854e-06 -6.465592906e-18 -0.05025432609)
(-9.036906879e-06 -7.806154327e-18 -0.05024944538)
(-1.101695324e-05 -9.18493207e-18 -0.05024322998)
(-1.30076984e-05 -1.017269163e-17 -0.0502355587)
(-1.501459365e-05 -1.082558413e-17 -0.05022625819)
(-1.70409475e-05 -1.119021378e-17 -0.05021508813)
(-1.908768739e-05 -1.435673645e-17 -0.05020172419)
(-2.115486054e-05 -1.50892231e-17 -0.05018573668)
(-2.324197431e-05 -1.58044438e-17 -0.05016656374)
(-2.5347071e-05 -1.590404443e-17 -0.0501434812)
(-2.746639652e-05 -1.715725755e-17 -0.05011557048)
(-2.959449423e-05 -1.83762798e-17 -0.0500816854)
(-3.172472222e-05 -1.984526234e-17 -0.05004041811)
(-3.384960684e-05 -2.023333948e-17 -0.04999006374)
(-1.146267113e-06 -2.559386954e-18 -0.05027441685)
(-2.993652993e-06 -3.928800093e-18 -0.05027334419)
(-4.748059477e-06 -2.574879831e-18 -0.05027099311)
(-6.578900618e-06 -4.930509993e-18 -0.05026743195)
(-8.426478961e-06 -1.100025654e-17 -0.05026262639)
(-1.028413086e-05 -1.15045003e-17 -0.05025650047)
(-1.215761568e-05 -1.290780155e-17 -0.05024893052)
(-1.405187347e-05 -1.153548742e-17 -0.05023973945)
(-1.59710099e-05 -1.031038852e-17 -0.05022868392)
(-1.791626976e-05 -1.428911768e-17 -0.05021543612)
(-1.988745903e-05 -1.643423638e-17 -0.05019956188)
(-2.18832212e-05 -1.721325339e-17 -0.05018049461)
(-2.390056972e-05 -1.65688788e-17 -0.05015750552)
(-2.593490749e-05 -1.593231812e-17 -0.05012967151)
(-2.798016917e-05 -1.668017721e-17 -0.05009584166)
(-3.002910122e-05 -1.702323054e-17 -0.0500546028)
(-3.207383429e-05 -1.686674662e-17 -0.05000424395)
(-3.410395701e-05 -1.856819401e-17 -0.04994271963)
(-3.610578944e-05 -1.975894002e-17 -0.04986761022)
(-3.806449643e-05 -2.060126374e-17 -0.049776078)
(-3.996207857e-05 -2.113682561e-17 -0.04966482351)
(-4.177627694e-05 -2.147606691e-17 -0.04953004161)
(-4.348257033e-05 -2.178070125e-17 -0.04936737601)
(-4.505278927e-05 -2.196697182e-17 -0.0491718791)
(-4.645592939e-05 -2.211104095e-17 -0.04893797451)
(-4.765932703e-05 -2.231683948e-17 -0.04865942653)
(-4.862856972e-05 -2.261864824e-17 -0.04832931765)
(-4.933002621e-05 -2.221777991e-17 -0.0479400336)
(-4.973079466e-05 -2.178273139e-17 -0.04748326148)
(-4.980033899e-05 -2.075717183e-17 -0.04694999631)
(-4.951217043e-05 -2.024413784e-17 -0.04633056234)
(-4.884469932e-05 -2.008960664e-17 -0.04561464608)
(-4.778333341e-05 -1.969123736e-17 -0.04479133859)
(-4.632069123e-05 -1.908606792e-17 -0.04384919346)
(-4.445768078e-05 -1.863417886e-17 -0.04277629131)
(-4.220486218e-05 -1.803046292e-17 -0.04156031358)
(-3.958333271e-05 -1.728145305e-17 -0.04018863077)
(-3.66242925e-05 -1.638825708e-17 -0.03864839175)
(-3.336951571e-05 -1.534781676e-17 -0.03692661348)
(-2.987151921e-05 -1.446062136e-17 -0.03501027821)
(-2.619339802e-05 -1.344573194e-17 -0.03288643061)
(-2.240852843e-05 -1.195218846e-17 -0.0305422724)
(-1.860017726e-05 -1.038993889e-17 -0.02796525384)
(-1.486099517e-05 -8.930947887e-18 -0.02514315938)
(-1.129198868e-05 -7.282000124e-18 -0.02206418367)
(-8.000701298e-06 -5.867900129e-18 -0.01871699607)
(-5.10015334e-06 -4.738879345e-18 -0.01509079488)
(-2.719355548e-06 -3.475465019e-18 -0.0111753369)
(-1.031064011e-06 -2.150797188e-18 -0.006960909441)
(-1.859688498e-07 -7.409016552e-19 -0.002438146106)
(-1.057643801e-06 -1.619715955e-17 -0.05028691541)
(-2.762716082e-06 -1.195209433e-17 -0.05028586319)
(-4.384868977e-06 -1.282370893e-17 -0.0502835548)
(-6.081054665e-06 -1.077454314e-17 -0.05028005561)
(-7.796604421e-06 -1.097678727e-17 -0.0502753302)
(-9.52707521e-06 -1.115266963e-17 -0.05026929944)
(-1.127911446e-05 -1.160098966e-17 -0.05026183763)
(-1.305701252e-05 -1.243438498e-17 -0.05025276355)
(-1.48645233e-05 -1.370711016e-17 -0.05024183018)
(-1.670349636e-05 -1.272284647e-17 -0.05022870576)
(-1.857356594e-05 -1.402069665e-17 -0.0502129516)
(-2.047287183e-05 -1.521082664e-17 -0.05019399621)
(-2.239781308e-05 -1.659531878e-17 -0.05017110571)
(-2.43431028e-05 -1.669305825e-17 -0.05014335189)
(-2.630204888e-05 -1.707293584e-17 -0.05010957878)
(-2.826719147e-05 -1.754277394e-17 -0.05006836779)
(-3.022961337e-05 -1.825074039e-17 -0.05001800233)
(-3.21775819e-05 -1.887220226e-17 -0.04995643089)
(-3.409762539e-05 -1.940073676e-17 -0.04988122548)
(-3.597531147e-05 -1.977022028e-17 -0.04978953881)
(-3.779256689e-05 -1.992198339e-17 -0.04967806141)
(-3.952803528e-05 -1.97784892e-17 -0.04954297628)
(-4.115827029e-05 -2.034610855e-17 -0.04937991503)
(-4.265622134e-05 -2.068872059e-17 -0.04918391842)
(-4.399310347e-05 -2.086390614e-17 -0.04894939911)
(-4.51380654e-05 -2.09023561e-17 -0.04867011221)
(-4.605892389e-05 -2.081266656e-17 -0.0483391326)
(-4.672422561e-05 -2.069430051e-17 -0.0479488419)
(-4.71031448e-05 -2.043582081e-17 -0.04749092691)
(-4.716768839e-05 -2.01259944e-17 -0.0469563863)
(-4.689312269e-05 -1.991169892e-17 -0.04633555272)
(-4.625930988e-05 -1.958133993e-17 -0.04561812523)
(-4.525296763e-05 -1.915510717e-17 -0.04479321357)
(-4.386734863e-05 -1.86427066e-17 -0.04384939478)
(-4.210343405e-05 -1.805684562e-17 -0.0427747769)
(-3.997145901e-05 -1.738127771e-17 -0.04155707424)
(-3.749117121e-05 -1.660594325e-17 -0.04018369544)
(-3.469186222e-05 -1.572440121e-17 -0.038641831)
(-3.161280292e-05 -1.473331608e-17 -0.0369185421)
(-2.830337199e-05 -1.389405046e-17 -0.03500085899)
(-2.482293382e-05 -1.297798472e-17 -0.03287587728)
(-2.124061081e-05 -1.176377984e-17 -0.03053085174)
(-1.76350291e-05 -1.010339372e-17 -0.02795328744)
(-1.409376114e-05 -8.84334761e-18 -0.02513102506)
(-1.071237287e-05 -7.495933854e-18 -0.02205231557)
(-7.592691666e-06 -6.183254469e-18 -0.01870588424)
(-4.841964354e-06 -4.920877666e-18 -0.01508098605)
(-2.582856563e-06 -3.598199315e-18 -0.01116743484)
(-9.799560036e-07 -2.211153227e-18 -0.00695557464)
(-1.76937282e-07 -7.594137791e-19 -0.002436097047)
(-9.666680127e-07 -3.454894567e-18 -0.05029891022)
(-2.525919968e-06 -6.270689229e-18 -0.05029787923)
(-4.012372278e-06 -8.355745694e-18 -0.0502956157)
(-5.569733414e-06 -1.051022386e-17 -0.0502921825)
(-7.149637886e-06 -7.080364611e-18 -0.05028754193)
(-8.749220539e-06 -8.343719152e-18 -0.05028161174)
(-1.037558357e-05 -8.505066292e-18 -0.05027426398)
(-1.203326082e-05 -1.122875097e-17 -0.05026531416)
(-1.372516938e-05 -1.346753927e-17 -0.05025451045)
(-1.545347905e-05 -1.283441603e-17 -0.0502415167)
(-1.721797417e-05 -1.213327989e-17 -0.05022588945)
(-1.901641478e-05 -1.289616681e-17 -0.05020705196)
(-2.084464186e-05 -1.490504113e-17 -0.050184265)
(-2.269683245e-05 -1.634337095e-17 -0.05015659506)
(-2.456609675e-05 -1.736679268e-17 -0.05012288076)
(-2.644444813e-05 -1.845800682e-17 -0.05008169836)
(-2.832153274e-05 -2.005267464e-17 -0.0500313264)
(-3.018515339e-05 -1.966404096e-17 -0.04996970695)
(-3.202270447e-05 -1.96203844e-17 -0.04989440431)
(-3.381941305e-05 -1.970073791e-17 -0.04980256266)
(-3.555705949e-05 -1.980368073e-17 -0.04969086315)
(-3.721584611e-05 -1.989614706e-17 -0.04955547821)
(-3.877311854e-05 -2.000426827e-17 -0.04939202884)
(-4.020288807e-05 -2.004766956e-17 -0.04919554477)
(-4.147821631e-05 -1.997682925e-17 -0.04896042859)
(-4.257005481e-05 -1.974075009e-17 -0.04868042729)
(-4.344862781e-05 -1.926642495e-17 -0.04834860922)
(-4.40842642e-05 -1.933555577e-17 -0.0479573526)
(-4.44479633e-05 -1.923336353e-17 -0.04749834351)
(-4.45139264e-05 -1.948002006e-17 -0.04696258439)
(-4.425917974e-05 -1.919090796e-17 -0.046340416)
(-4.36650443e-05 -1.886631134e-17 -0.04562154922)
(-4.271918849e-05 -1.847812564e-17 -0.04479511122)
(-4.141534467e-05 -1.80148065e-17 -0.04384970092)
(-3.975452376e-05 -1.747165679e-17 -0.04277345204)
(-3.774659987e-05 -1.684566082e-17 -0.04155411031)
(-3.540991364e-05 -1.613529994e-17 -0.04017911987)
(-3.277184663e-05 -1.534035566e-17 -0.03863570947)
(-2.986921518e-05 -1.446538083e-17 -0.03691098236)
(-2.674833575e-05 -1.351900175e-17 -0.03499201423)
(-2.3464947e-05 -1.249201196e-17 -0.03286594878)
(-2.008407426e-05 -1.137422356e-17 -0.03052009114)
(-1.667984768e-05 -1.004933367e-17 -0.02794199887)
(-1.333478985e-05 -8.753667124e-18 -0.02511956614)
(-1.013916133e-05 -7.368333177e-18 -0.02204109732)
(-7.189275225e-06 -5.878700432e-18 -0.01869537123)
(-4.586690153e-06 -4.738803018e-18 -0.0150716975)
(-2.447909989e-06 -3.51090008e-18 -0.01115994534)
(-9.294325253e-07 -2.161362879e-18 -0.006950513926)
(-1.680096023e-07 -7.426902942e-19 -0.002434151246)
(-8.741751944e-07 -1.558539329e-18 -0.05031038799)
(-2.284810307e-06 -2.244335181e-18 -0.05030937918)
(-3.631720537e-06 -4.319137565e-18 -0.05030716306)
(-5.046463933e-06 -6.073698239e-18 -0.05030379938)
(-6.487712228e-06 -6.996167663e-18 -0.05029924777)
(-7.953202285e-06 -8.102331941e-18 -0.0502934236)
(-9.449786779e-06 -9.274220905e-18 -0.05028619563)
(-1.098344159e-05 -1.060184015e-17 -0.05027737644)
(-1.255653764e-05 -1.174232227e-17 -0.05026670948)
(-1.417043373e-05 -1.25046861e-17 -0.05025385339)
(-1.582523083e-05 -1.33232573e-17 -0.05023835954)
(-1.751860857e-05 -1.397955862e-17 -0.05021964578)
(-1.924599724e-05 -1.472722505e-17 -0.05019696731)
(-2.100144614e-05 -1.543824134e-17 -0.05016938497)
(-2.277769618e-05 -1.604493446e-17 -0.05013573214)
(-2.456540689e-05 -1.630805304e-17 -0.05009458051)
(-2.635364099e-05 -1.732930577e-17 -0.05004420352)
(-2.813074004e-05 -1.792871228e-17 -0.0499825369)
(-2.988433584e-05 -1.840414228e-17 -0.0499071379)
(-3.159928106e-05 -1.877973669e-17 -0.04981514346)
(-3.32576576e-05 -1.906959057e-17 -0.04970322565)
(-3.484073494e-05 -1.928261657e-17 -0.04956754724)
(-3.632675696e-05 -1.942697531e-17 -0.04940371986)
(-3.769144763e-05 -1.949694399e-17 -0.04920676326)
(-3.890913164e-05 -1.948534608e-17 -0.04897107104)
(-3.995216134e-05 -1.939203147e-17 -0.04869038249)
(-4.079300671e-05 -1.922624987e-17 -0.04835776024)
(-4.140392859e-05 -1.902461498e-17 -0.04796557968)
(-4.17579969e-05 -1.876317448e-17 -0.04750552632)
(-4.183098841e-05 -1.846150162e-17 -0.04696860624)
(-4.160137273e-05 -1.830313221e-17 -0.04634516781)
(-4.105213665e-05 -1.807987407e-17 -0.04562493316)
(-4.017161242e-05 -1.776656581e-17 -0.0447970458)
(-3.895383291e-05 -1.735853282e-17 -0.04385012489)
(-3.739985521e-05 -1.686331233e-17 -0.04277232827)
(-3.551899158e-05 -1.629592756e-17 -0.04155143121)
(-3.332831984e-05 -1.564765856e-17 -0.040174911)
(-3.085335324e-05 -1.491045644e-17 -0.03863003203)
(-2.812845453e-05 -1.407193945e-17 -0.03690393718)
(-2.519691041e-05 -1.314368499e-17 -0.03498374493)
(-2.211091601e-05 -1.213605135e-17 -0.03285664447)
(-1.893158072e-05 -1.106055584e-17 -0.03050998873)
(-1.572845963e-05 -9.920510101e-18 -0.02793138516)
(-1.25791415e-05 -8.728163589e-18 -0.02510877853)
(-9.56860887e-06 -7.495488805e-18 -0.02203052398)
(-6.787787411e-06 -6.243983704e-18 -0.0186854523)
(-4.332645928e-06 -4.910079367e-18 -0.01506292536)
(-2.313610936e-06 -3.56198621e-18 -0.01115286531)
(-8.791471246e-07 -2.178083993e-18 -0.006945725199)
(-1.591230129e-07 -7.45796233e-19 -0.002432307907)
(-7.800774982e-07 2.577240316e-18 -0.0503213379)
(-2.039178477e-06 1.063087994e-17 -0.05032035277)
(-3.243647401e-06 7.936681218e-20 -0.05031818679)
(-4.513300604e-06 -3.960811273e-18 -0.05031489581)
(-5.812836867e-06 -5.878315596e-18 -0.05031043698)
(-7.141127091e-06 -7.196135686e-18 -0.05030472369)
(-8.50496688e-06 -8.761117325e-18 -0.05029762067)
(-9.910912152e-06 -1.004426677e-17 -0.05028893734)
(-1.136174337e-05 -1.100709482e-17 -0.05027841318)
(-1.285814274e-05 -1.154136657e-17 -0.05026570119)
(-1.439973492e-05 -1.479022478e-17 -0.05025034684)
(-1.59842338e-05 -1.426305213e-17 -0.05023176223)
(-1.760719438e-05 -1.425943478e-17 -0.05020919675)
(-1.92622711e-05 -1.45073945e-17 -0.05018170579)
(-2.094118962e-05 -1.507747286e-17 -0.05014811797)
(-2.263402746e-05 -1.551208104e-17 -0.05010700027)
(-2.433010661e-05 -1.546917679e-17 -0.0500566207)
(-2.601837068e-05 -1.592269518e-17 -0.04999490915)
(-2.768595622e-05 -1.701932303e-17 -0.0499194167)
(-2.931742964e-05 -1.773753465e-17 -0.04982727357)
(-3.089629541e-05 -1.822488779e-17 -0.04971514357)
(-3.24041897e-05 -1.855860796e-17 -0.04957918074)
(-3.381992364e-05 -1.877747935e-17 -0.04941498794)
(-3.512121627e-05 -1.889860549e-17 -0.04921757613)
(-3.628366976e-05 -1.893512588e-17 -0.04898133108)
(-3.728120765e-05 -1.889186682e-17 -0.04869998467)
(-3.808809651e-05 -1.876432105e-17 -0.04836659442)
(-3.867829172e-05 -1.854194029e-17 -0.04797353317)
(-3.902706478e-05 -1.81875759e-17 -0.04751248643)
(-3.911156183e-05 -1.763674164e-17 -0.04697446383)
(-3.891151382e-05 -1.768775432e-17 -0.04634982029)
(-3.841145111e-05 -1.7539765e-17 -0.04562828917)
(-3.760031887e-05 -1.723517719e-17 -0.0447990292)
(-3.647239721e-05 -1.678306001e-17 -0.0438506778)
(-3.502878832e-05 -1.616736633e-17 -0.0427714157)
(-3.327808655e-05 -1.573588628e-17 -0.04154904577)
(-3.123608815e-05 -1.521783338e-17 -0.04017107621)
(-2.892646951e-05 -1.463373536e-17 -0.03862480464)
(-2.638116641e-05 -1.371225186e-17 -0.03689741114)
(-2.364048313e-05 -1.270929604e-17 -0.0349760544)
(-2.075316139e-05 -1.15984337e-17 -0.03284796653)
(-1.77763881e-05 -1.056094603e-17 -0.03050054609)
(-1.477516323e-05 -9.501345179e-18 -0.02792144739)
(-1.182219502e-05 -8.334410882e-18 -0.0250986625)
(-8.99721829e-06 -7.070326961e-18 -0.02202059546)
(-6.385760233e-06 -5.602111573e-18 -0.01867612681)
(-4.078288212e-06 -4.488066348e-18 -0.01505466858)
(-2.17913729e-06 -3.290859929e-18 -0.01114619389)
(-8.287860415e-07 -2.023787674e-18 -0.006941207949)
(-1.502204017e-07 -6.962785677e-19 -0.002430566868)
(-6.841856719e-07 -2.050891286e-18 -0.05033175217)
(-1.789080685e-06 -4.909338967e-18 -0.05033079172)
(-2.849100874e-06 -8.954209009e-18 -0.05032867773)
(-3.972002723e-06 -6.957528431e-18 -0.05032546207)
(-5.127513708e-06 -6.853557105e-18 -0.05032109969)
(-6.316162498e-06 -7.702004906e-18 -0.05031550144)
(-7.544865458e-06 -8.756805015e-18 -0.05030852825)
(-8.819683935e-06 -9.973516431e-18 -0.0502999856)
(-1.014446394e-05 -1.14845554e-17 -0.05028960892)
(-1.151998233e-05 -1.061040373e-17 -0.05027704607)
(-1.294525191e-05 -1.162383246e-17 -0.05026183642)
(-1.441759178e-05 -1.243589411e-17 -0.05024338578)
(-1.593235627e-05 -1.32203501e-17 -0.05022093773)
(-1.74826256e-05 -1.416577532e-17 -0.05019354248)
(-1.905967245e-05 -1.51083375e-17 -0.05016002372)
(-2.065374945e-05 -1.601165249e-17 -0.05011894338)
(-2.225455621e-05 -1.653894475e-17 -0.05006856436)
(-2.385116831e-05 -1.694664815e-17 -0.05000681129)
(-2.543017778e-05 -1.72891354e-17 -0.04993123008)
(-2.697636274e-05 -1.760434822e-17 -0.04983894414)
(-2.847453101e-05 -1.788293683e-17 -0.0497266099)
(-2.990672945e-05 -1.811055425e-17 -0.049590374)
(-3.125260086e-05 -1.826452952e-17 -0.04942583084)
(-3.249134362e-05 -1.835450899e-17 -0.04922798338)
(-3.359989566e-05 -1.839224554e-17 -0.04899121038)
(-3.455421964e-05 -1.838495185e-17 -0.04870923732)
(-3.532995953e-05 -1.833964423e-17 -0.04837511718)
(-3.590249921e-05 -1.827479668e-17 -0.04798122018)
(-3.624912667e-05 -1.822354374e-17 -0.04751923214)
(-3.6348512e-05 -1.82480895e-17 -0.04698016621)
(-3.618168979e-05 -1.809919948e-17 -0.04635438328)
(-3.573430062e-05 -1.768053381e-17 -0.04563162721)
(-3.499597261e-05 -1.733033848e-17 -0.04480107093)
(-3.396128073e-05 -1.707594746e-17 -0.0438513688)
(-3.263137049e-05 -1.633007054e-17 -0.04277072311)
(-3.101393696e-05 -1.54008517e-17 -0.04154696236)
(-2.912343989e-05 -1.444551121e-17 -0.04016762313)
(-2.698175371e-05 -1.340551609e-17 -0.03862003423)
(-2.461841776e-05 -1.281344698e-17 -0.0368914105)
(-2.207080277e-05 -1.213299844e-17 -0.03496894838)
(-1.938430965e-05 -1.139589158e-17 -0.03283992044)
(-1.661202621e-05 -1.063193011e-17 -0.03049176805)
(-1.381449298e-05 -9.484709639e-18 -0.02791218946)
(-1.105948808e-05 -8.302755768e-18 -0.02508922156)
(-8.421528147e-06 -7.077626461e-18 -0.02201131489)
(-5.980731586e-06 -5.802185703e-18 -0.01866739752)
(-3.822040506e-06 -4.580378518e-18 -0.01504692948)
(-2.04366678e-06 -3.307639551e-18 -0.01113993292)
(-7.780515951e-07 -1.978800729e-18 -0.006936963394)
(-1.412523295e-07 -5.874716936e-19 -0.002428928588)
(-5.871838473e-07 7.369887475e-18 -0.05034162413)
(-1.53615249e-06 -1.06450434e-17 -0.05034068895)
(-2.450382233e-06 -3.938819933e-18 -0.05033862832)
(-3.424744816e-06 -5.085578742e-18 -0.05033548998)
(-4.434057966e-06 -4.61982817e-18 -0.05033122737)
(-5.480737526e-06 -7.199126304e-18 -0.05032574784)
(-6.572108452e-06 -8.076687565e-18 -0.05031890916)
(-7.713525061e-06 -8.490972859e-18 -0.05031051184)
(-8.909142257e-06 -8.525345658e-18 -0.05030028691)
(-1.016013831e-05 -1.112192189e-17 -0.05028787718)
(-1.146544719e-05 -8.919421328e-18 -0.05027281622)
(-1.282186881e-05 -1.053845855e-17 -0.05025450369)
(-1.422415936e-05 -1.15058606e-17 -0.05023217726)
(-1.566522665e-05 -1.405467147e-17 -0.05020488174)
(-1.713645905e-05 -1.513462484e-17 -0.05017143571)
(-1.862821116e-05 -1.668226402e-17 -0.05013039621)
(-2.013060984e-05 -1.741899059e-17 -0.05008002132)
(-2.163225719e-05 -1.77191958e-17 -0.05001823122)
(-2.311948708e-05 -1.734596786e-17 -0.04994256692)
(-2.457840282e-05 -1.730184379e-17 -0.04985014554)
(-2.599417231e-05 -1.742360395e-17 -0.04973761678)
(-2.734921894e-05 -1.759933064e-17 -0.04960112061)
(-2.862491858e-05 -1.764576259e-17 -0.04943624388)
(-2.980143055e-05 -1.765481037e-17 -0.04923798242)
(-3.085674089e-05 -1.764282303e-17 -0.04900070831)
(-3.176884334e-05 -1.760793033e-17 -0.04871814145)
(-3.251490654e-05 -1.754605549e-17 -0.04838333106)
(-3.307193061e-05 -1.746174528e-17 -0.04798864472)
(-3.341879458e-05 -1.737436198e-17 -0.0475257687)
(-3.353558227e-05 -1.731923854e-17 -0.04698571944)
(-3.34048676e-05 -1.674169961e-17 -0.04635886351)
(-3.301313481e-05 -1.630849505e-17 -0.04563495454)
(-3.235054701e-05 -1.584977725e-17 -0.0448031785)
(-3.141203036e-05 -1.534846405e-17 -0.04385220551)
(-3.019869288e-05 -1.499748747e-17 -0.04277025823)
(-2.871738054e-05 -1.427126403e-17 -0.04154518881)
(-2.698122834e-05 -1.348987503e-17 -0.04016455952)
(-2.501029886e-05 -1.267747318e-17 -0.03861572844)
(-2.283174892e-05 -1.21695061e-17 -0.03688594285)
(-2.048004684e-05 -1.144358487e-17 -0.03496243444)
(-1.799720259e-05 -1.073419997e-17 -0.03283251398)
(-1.543220432e-05 -9.853531009e-18 -0.03048366261)
(-1.284108643e-05 -8.838034872e-18 -0.02790361913)
(-1.028666559e-05 -7.771561278e-18 -0.02508046313)
(-7.838189625e-06 -6.668148646e-18 -0.02200268924)
(-5.570304898e-06 -5.542824137e-18 -0.01865927074)
(-3.562371024e-06 -4.38183455e-18 -0.01503971351)
(-1.906381391e-06 -3.184006928e-18 -0.01113408669)
(-7.266368042e-07 -1.945029319e-18 -0.00693299439)
(-1.321642087e-07 -6.611290439e-19 -0.002427394143)
(-4.894345744e-07 -2.921088373e-18 -0.0503509486)
(-1.28140718e-06 -5.535202006e-18 -0.05035003924)
(-2.049200752e-06 -5.778245326e-18 -0.05034803308)
(-2.873440138e-06 -6.564318881e-18 -0.05034497429)
(-3.734685696e-06 -7.946410108e-18 -0.05034081422)
(-4.637376949e-06 -8.671033603e-18 -0.05033545638)
(-5.58950628e-06 -8.966812603e-18 -0.05032875566)
(-6.595750748e-06 -8.881552866e-18 -0.05032050774)
(-7.659616781e-06 -8.421459644e-18 -0.05031043844)
(-8.782927052e-06 -1.046675456e-17 -0.05029818537)
(-9.964547996e-06 -1.060780467e-17 -0.05028327637)
(-1.120099759e-05 -1.122418329e-17 -0.05026510514)
(-1.248679464e-05 -1.189341231e-17 -0.05024290348)
(-1.381472251e-05 -1.250895868e-17 -0.0502157107)
(-1.517621483e-05 -1.314473536e-17 -0.0501823404)
(-1.656213296e-05 -1.372684203e-17 -0.05014134494)
(-1.796250199e-05 -1.425532033e-17 -0.05009097809)
(-1.936528125e-05 -1.481789209e-17 -0.05002915624)
(-2.075739603e-05 -1.525182825e-17 -0.04995341525)
(-2.212628152e-05 -1.559644844e-17 -0.04986086667)
(-2.345733396e-05 -1.586616824e-17 -0.04974815464)
(-2.473338401e-05 -1.606534881e-17 -0.04961141247)
(-2.593749149e-05 -1.625890977e-17 -0.04944622037)
(-2.705087475e-05 -1.639242547e-17 -0.04924756814)
(-2.805283407e-05 -1.646749304e-17 -0.0490098215)
(-2.892293331e-05 -1.647688889e-17 -0.04872669532)
(-2.963982873e-05 -1.640104916e-17 -0.04839123545)
(-3.018253832e-05 -1.619110409e-17 -0.04799580736)
(-3.053118242e-05 -1.58453054e-17 -0.04753209782)
(-3.066704226e-05 -1.532442891e-17 -0.04699112611)
(-3.057441906e-05 -1.478661149e-17 -0.04636326452)
(-3.024053386e-05 -1.447908314e-17 -0.04563827574)
(-2.96560064e-05 -1.402525272e-17 -0.04480535728)
(-2.881615328e-05 -1.338591514e-17 -0.04385319408)
(-2.772190812e-05 -1.315143255e-17 -0.04277002765)
(-2.637938126e-05 -1.274663188e-17 -0.04154373192)
(-2.480042424e-05 -1.220785782e-17 -0.0401618928)
(-2.300326061e-05 -1.155817745e-17 -0.03861189541)
(-2.101267957e-05 -1.081132365e-17 -0.03688101711)
(-1.886036606e-05 -1.025994351e-17 -0.03495652235)
(-1.658470102e-05 -9.611486987e-18 -0.03282575731)
(-1.423061814e-05 -8.685792155e-18 -0.03047623996)
(-1.184955138e-05 -7.635212166e-18 -0.02789574691)
(-9.49930953e-06 -6.643928823e-18 -0.02507239778)
(-7.243778791e-06 -5.509479327e-18 -0.02199472877)
(-5.152017462e-06 -4.542755303e-18 -0.01865175598)
(-3.297703069e-06 -3.679100675e-18 -0.01503302902)
(-1.766442015e-06 -2.718168804e-18 -0.01112866193)
(-6.742318913e-07 -1.679712499e-18 -0.006929305377)
(-1.229036941e-07 -5.779075455e-19 -0.002425965176)
(-3.914802543e-07 -1.603763883e-17 -0.05035972156)
(-1.026338019e-06 -1.136943289e-17 -0.05035883827)
(-1.646845302e-06 -1.097015899e-17 -0.05035688764)
(-2.319498774e-06 -7.605393407e-18 -0.05035391045)
(-3.031924858e-06 -1.335513997e-17 -0.05034985502)
(-3.789540382e-06 -1.133280519e-17 -0.05034462131)
(-4.600318013e-06 -1.10071084e-17 -0.0503380609)
(-5.469454044e-06 -1.089529703e-17 -0.05032996547)
(-6.39949063e-06 -1.147430979e-17 -0.05032005492)
(-7.392204243e-06 -1.041667075e-17 -0.05030796122)
(-8.446797813e-06 -1.115165769e-17 -0.05029320659)
(-9.559651021e-06 -1.177213338e-17 -0.05027517882)
(-1.072508356e-05 -1.246388911e-17 -0.05025310401)
(-1.193584192e-05 -1.125153855e-17 -0.05022601616)
(-1.318375173e-05 -1.142611089e-17 -0.05019272394)
(-1.445997294e-05 -1.088881701e-17 -0.0501517754)
(-1.575387071e-05 -1.078391633e-17 -0.05010142093)
(-1.705348336e-05 -1.24260254e-17 -0.05003957285)
(-1.834709692e-05 -1.343090288e-17 -0.04996376222)
(-1.96225727e-05 -1.404402713e-17 -0.04987109559)
(-2.086558178e-05 -1.44056763e-17 -0.04975821236)
(-2.20603411e-05 -1.462584254e-17 -0.04962123973)
(-2.319083302e-05 -1.489910463e-17 -0.04945575185)
(-2.423923605e-05 -1.513283174e-17 -0.04925673311)
(-2.518683933e-05 -1.532397693e-17 -0.04901854373)
(-2.601441567e-05 -1.550567135e-17 -0.04873489413)
(-2.670187599e-05 -1.575406417e-17 -0.04839882682)
(-2.723029429e-05 -1.536463494e-17 -0.04800270581)
(-2.758114578e-05 -1.505198198e-17 -0.04753821853)
(-2.77369426e-05 -1.406866773e-17 -0.04699638642)
(-2.768343573e-05 -1.386060924e-17 -0.04636758749)
(-2.740868935e-05 -1.35930728e-17 -0.04564159283)
(-2.690387561e-05 -1.325890045e-17 -0.04480761026)
(-2.616481039e-05 -1.286527378e-17 -0.04385433851)
(-2.519203869e-05 -1.243258382e-17 -0.04277003644)
(-2.399087443e-05 -1.193807352e-17 -0.04154259784)
(-2.257197025e-05 -1.136954125e-17 -0.04015963024)
(-2.095175912e-05 -1.071672685e-17 -0.03860854357)
(-1.915269001e-05 -9.96907515e-18 -0.03687664289)
(-1.720364389e-05 -9.373793686e-18 -0.03495122329)
(-1.51393406e-05 -8.670343567e-18 -0.03281966322)
(-1.300059172e-05 -7.999706221e-18 -0.03046951375)
(-1.083415087e-05 -7.248553885e-18 -0.02788858701)
(-8.692709728e-06 -6.466268397e-18 -0.02506503995)
(-6.634651479e-06 -5.650727149e-18 -0.02198744764)
(-4.723275125e-06 -4.693395347e-18 -0.01864486653)
(-3.026373143e-06 -3.720168796e-18 -0.01502688781)
(-1.622968358e-06 -2.712640799e-18 -0.01112366818)
(-6.20497635e-07 -1.663725473e-18 -0.00692590274)
(-1.134067553e-07 -5.70466016e-19 -0.002424644096)
(-2.938865779e-07 -2.908375898e-18 -0.05036794063)
(-7.718002684e-07 -4.263222243e-18 -0.05036708385)
(-1.244213069e-06 -2.875966105e-18 -0.05036519016)
(-1.764663026e-06 -6.174224067e-18 -0.05036229594)
(-2.327827845e-06 -7.647798102e-18 -0.05035834635)
(-2.939519703e-06 -8.365991365e-18 -0.05035323869)
(-3.607235389e-06 -8.970052031e-18 -0.05034682013)
(-4.337269078e-06 -9.632522684e-18 -0.05033887863)
(-5.131842791e-06 -1.033034926e-17 -0.05032912878)
(-5.991681407e-06 -1.084084337e-17 -0.05031719623)
(-6.916105291e-06 -1.118934529e-17 -0.05030259727)
(-7.90178481e-06 -1.151130986e-17 -0.05028471404)
(-8.942998579e-06 -1.167878173e-17 -0.05026276712)
(-1.003280434e-05 -1.132381935e-17 -0.05023578529)
(-1.116330064e-05 -1.209483467e-17 -0.05020257272)
(-1.232511995e-05 -1.254180527e-17 -0.05016167398)
(-1.350760373e-05 -1.300231388e-17 -0.05011133604)
(-1.469976132e-05 -1.333442561e-17 -0.0500494671)
(-1.589099434e-05 -1.358990431e-17 -0.04997359397)
(-1.706923984e-05 -1.377597008e-17 -0.04988081918)
(-1.82205011e-05 -1.390480543e-17 -0.04976777735)
(-1.933086539e-05 -1.399209492e-17 -0.0496305905)
(-2.038504262e-05 -1.405629785e-17 -0.04946482762)
(-2.136604972e-05 -1.408263329e-17 -0.04926546778)
(-2.225717252e-05 -1.405487048e-17 -0.04902686651)
(-2.304053635e-05 -1.395876243e-17 -0.04874273062)
(-2.3697451e-05 -1.377837183e-17 -0.04840609932)
(-2.421067983e-05 -1.360513857e-17 -0.04800933538)
(-2.456319009e-05 -1.332040712e-17 -0.04754412705)
(-2.473895207e-05 -1.302274998e-17 -0.04700149785)
(-2.47248692e-05 -1.2907855e-17 -0.046371831)
(-2.450988522e-05 -1.268987912e-17 -0.04564490527)
(-2.408583861e-05 -1.239885364e-17 -0.04480993789)
(-2.34490316e-05 -1.204832896e-17 -0.04385564073)
(-2.259961306e-05 -1.164474238e-17 -0.04277028835)
(-2.154211754e-05 -1.118986902e-17 -0.04154179181)
(-2.028603487e-05 -1.068416437e-17 -0.04015777874)
(-1.884606741e-05 -1.012923858e-17 -0.03860568176)
(-1.724245183e-05 -9.530974189e-18 -0.03687283115)
(-1.550101999e-05 -8.902160661e-18 -0.03494654989)
(-1.365290734e-05 -8.244152099e-18 -0.03281424567)
(-1.173471396e-05 -7.566827314e-18 -0.03046349962)
(-9.788437461e-06 -6.865356787e-18 -0.02788215642)
(-7.8615071e-06 -6.140962997e-18 -0.02505840738)
(-6.006607031e-06 -5.399194868e-18 -0.02198086364)
(-4.281038582e-06 -4.54557863e-18 -0.0186386193)
(-2.746416344e-06 -3.586368138e-18 -0.01502130474)
(-1.474913868e-06 -2.605638199e-18 -0.01111911716)
(-5.650419574e-07 -1.594305013e-18 -0.006922794244)
(-1.036064023e-07 -5.459908764e-19 -0.002423433787)
(-1.964877092e-07 -2.371394015e-18 -0.05037560711)
(-5.174536533e-07 -4.234936699e-18 -0.05037477741)
(-8.419065053e-07 -5.617569544e-18 -0.05037294134)
(-1.210915702e-06 -7.817631294e-18 -0.05037013057)
(-1.624527421e-06 -4.298948696e-18 -0.05036628739)
(-2.089671987e-06 -5.714811616e-18 -0.05036130645)
(-2.613637203e-06 -6.65588098e-18 -0.0503550302)
(-3.20250482e-06 -7.935000258e-18 -0.05034724248)
(-3.859292012e-06 -9.051908128e-18 -0.05033765323)
(-4.584279799e-06 -9.584176295e-18 -0.05032588205)
(-5.3760195e-06 -1.025746829e-17 -0.05031143884)
(-6.231262203e-06 -1.096401096e-17 -0.05029369996)
(-7.144778274e-06 -1.178264057e-17 -0.05027188064)
(-8.109771413e-06 -1.295030596e-17 -0.05024500492)
(-9.118027192e-06 -1.324064632e-17 -0.05021187325)
(-1.016020874e-05 -1.43331304e-17 -0.05017102683)
(-1.12264289e-05 -1.514986248e-17 -0.05012070901)
(-1.230678733e-05 -1.415181587e-17 -0.05005882432)
(-1.339112109e-05 -1.366031832e-17 -0.04998289595)
(-1.446747775e-05 -1.341885725e-17 -0.04989002312)
(-1.55229299e-05 -1.329329702e-17 -0.0497768359)
(-1.654490728e-05 -1.321028602e-17 -0.04963945166)
(-1.751902675e-05 -1.312410156e-17 -0.04947343515)
(-1.842965811e-05 -1.300025865e-17 -0.04927376055)
(-1.926147581e-05 -1.280345344e-17 -0.04903477922)
(-1.999797085e-05 -1.248595499e-17 -0.04875019485)
(-2.062247384e-05 -1.196757518e-17 -0.04841304387)
(-2.111900649e-05 -1.195824139e-17 -0.04801568808)
(-2.147179149e-05 -1.171419352e-17 -0.04754981643)
(-2.16666938e-05 -1.195768744e-17 -0.04700645455)
(-2.169161895e-05 -1.183662886e-17 -0.04637599055)
(-2.153629771e-05 -1.163541673e-17 -0.04564821005)
(-2.119338957e-05 -1.137876949e-17 -0.04481233889)
(-2.065954944e-05 -1.107340256e-17 -0.04385710099)
(-1.993475277e-05 -1.072090224e-17 -0.04277078508)
(-1.902287351e-05 -1.032148732e-17 -0.04154131765)
(-1.793223332e-05 -9.87580998e-18 -0.04015634445)
(-1.66758393e-05 -9.384462557e-18 -0.0386033186)
(-1.527177732e-05 -8.848232611e-18 -0.0368695935)
(-1.37427769e-05 -8.268726243e-18 -0.03494251687)
(-1.211634791e-05 -7.64705573e-18 -0.03280952189)
(-1.042480426e-05 -6.983486681e-18 -0.03045821708)
(-8.705269217e-06 -6.275053513e-18 -0.02787647653)
(-6.999727443e-06 -5.516061332e-18 -0.02505252274)
(-5.354914275e-06 -4.697142077e-18 -0.02197499976)
(-3.821825241e-06 -3.802569192e-18 -0.01863303646)
(-2.455547066e-06 -3.056757059e-18 -0.0150162998)
(-1.321017362e-06 -2.246842244e-18 -0.01111502519)
(-5.073702947e-07 -1.383994396e-18 -0.006919991013)
(-9.340579135e-08 -4.754779439e-19 -0.002422338559)
(-9.940214632e-08 -1.971372234e-18 -0.05038272422)
(-2.641757109e-07 -3.184864766e-18 -0.05038192154)
(-4.416299027e-07 -4.025539144e-18 -0.05038014263)
(-6.600124814e-07 -4.750916169e-18 -0.05037741473)
(-9.242752764e-07 -4.948015257e-18 -0.05037367775)
(-1.242665822e-06 -5.558662149e-18 -0.05036882291)
(-1.622312542e-06 -6.326392363e-18 -0.05036268858)
(-2.068496442e-06 -7.17487219e-18 -0.0503550535)
(-2.585075757e-06 -7.964762344e-18 -0.05034562283)
(-3.172538307e-06 -8.611701755e-18 -0.05033401089)
(-3.828953004e-06 -9.221836815e-18 -0.05031972158)