/*--------------------------------*- C++ -*----------------------------------*\
  =========                 |
  \\      /  F ield         | OpenFOAM: The Open Source CFD Toolbox
   \\    /   O peration     | Website:  https://openfoam.org
    \\  /    A nd           | Version:  7
     \\/     M anipulation  |
\*---------------------------------------------------------------------------*/
FoamFile
{
    version     2.0;
    format      ascii;
    class       volScalarField;
    location    "0.0018";
    object      generalizedNewtonian:nu;
}
// * * * * * * * * * * * * * * * * * * * * * * * * * * * * * * * * * * * * * //

dimensions      [0 2 -1 0 0 0 0];

internalField   nonuniform List<scalar> 
1167
(
6.567125878
6.544798194
6.582666921
6.555459263
6.540680753
6.521551139
6.497626145
6.469510534
6.437051698
6.400008589
6.35819997
6.311525422
6.259809854
6.202940102
6.140849631
6.073502595
6.00089658
5.923059196
5.840074237
5.752006689
5.658915509
5.560886492
5.457947203
5.350085311
5.2372061
5.119200059
4.99580599
4.86666932
4.731321554
4.589189089
4.439528906
4.281423125
4.113791135
3.93534048
3.744615943
6.311088876
6.289162733
6.325349989
6.29876188
6.283839504
6.264704264
6.240741449
6.2126537
6.180190157
6.143256985
6.101645804
6.055235433
6.003934302
5.947689117
5.886456354
5.82024577
5.749098128
5.673079608
5.592276667
5.50678472
5.416750833
5.322185347
5.223179015
5.119663706
5.011588703
4.89877727
4.780957639
4.657749723
4.528668007
4.393096516
4.25024391
4.099171547
3.938754623
3.767676154
3.584462725
3.387528535
3.17537727
2.946966242
2.702423307
2.444024128
2.177201492
1.910583796
1.654408413
1.417873402
1.20698731
1.024035387
0.868329707
0.7374009216
0.6280203933
0.5368422577
6.071236402
6.04961179
6.084058523
6.057830289
6.042524949
6.022986846
5.998621289
5.970107252
5.937246435
5.899897523
5.858001343
5.811422486
5.760111124
5.704051965
5.643259843
5.57778597
5.507707902
5.4331379
5.354219178
5.271057788
5.183750397
5.092425561
4.997061694
4.897664743
4.794123332
4.686245797
4.573740901
4.456201076
4.333128157
4.203851243
4.067548217
3.923254404
3.76981219
3.605911688
3.430059791
3.240708495
3.036451223
2.8164348
2.581102333
2.333165536
2.078394964
1.825352046
1.583646425
1.361464044
1.163836588
0.9924072622
0.8462480541
0.7229501557
0.6195027473
0.5328275053
5.845437989
5.824036712
5.856707722
5.83065069
5.814702823
5.794488414
5.769444088
5.740141634
5.70654131
5.668474262
5.625893588
5.578795054
5.527142897
5.470962188
5.410318403
5.34530525
5.276074774
5.202754834
5.125477597
5.044416142
4.959678456
4.871343751
4.779437778
4.683934785
4.58469213
4.48151176
4.374084736
4.261974639
4.144639274
4.021384578
3.891375938
3.753619716
3.606939562
3.450009675
3.281358633
3.099500083
2.903124239
2.69157537
2.465600342
2.2282543
1.985508321
1.745720145
1.517818225
1.309052435
1.123633711
0.962722221
0.8252506863
0.7089080001
0.6109010727
0.5283956042
5.631778122
5.610541611
5.641433667
5.615374013
5.598590825
5.577522393
5.551549175
5.521257513
5.486632966
5.447615065
5.404162541
5.356298217
5.304076293
5.247576338
5.186910673
5.122215094
5.053655139
4.981396164
4.905655012
4.826539363
4.744208653
4.658710067
4.570101063
4.478282908
4.383138955
4.284457056
4.181864339
4.074924635
3.963069922
3.84558189
3.721613308
3.590148089
3.450011442
3.299873592
3.138288898
2.963823121
2.775292128
2.572246813
2.355700017
2.128977464
1.898122535
1.671177181
1.456368769
1.260108824
1.085937094
0.9346549647
0.8051265767
0.6951605092
0.6021718264
0.5235481727
5.428544723
5.407443971
5.436552437
5.410333761
5.392606204
5.370573255
5.34349338
5.312078914
5.276285144
5.236141245
5.191676414
5.142945918
5.090054179
5.033133635
4.972342558
4.907859779
4.839911793
4.768678235
4.694340717
4.617099824
4.537044651
4.454286004
4.36879286
4.280506282
4.189296913
4.094880694
3.996896847
3.894891239
3.788270354
3.676303832
3.558130613
3.432722492
3.298912848
3.155379312
3.000715986
2.833555241
2.652834123
2.458291707
2.251178452
2.03501391
1.815807675
1.601215423
1.398779435
1.214169678
1.050377459
0.9079416504
0.7857079001
0.6816161184
0.5932782715
0.5182836723
5.234228002
5.21321314
5.240525478
5.214069282
5.195368549
5.172265075
5.144024706
5.111388115
5.074393377
5.033064982
4.987509921
4.937870801
4.884281095
4.826922711
4.766012062
4.70175897
4.634387858
4.564119704
4.491194825
4.41573603
4.337918394
4.257762772
4.175277386
4.090392595
4.002916805
3.912571812
3.818990764
3.721696869
3.620074657
3.513395161
3.400780986
3.281205232
3.153510582
3.01639627
2.86850495
2.70854278
2.535569023
2.349498431
2.151774564
1.946032677
1.738163401
1.535393517
1.344614326
1.17085129
1.016651321
0.8823648652
0.7668562801
0.6681988059
0.5841888464
0.5125990309
5.047420231
5.026475208
5.052022086
5.025299365
5.005624537
4.981414118
4.952029437
4.918143146
4.879946317
4.837477481
4.790892956
4.740377995
4.686135679
4.628392646
4.567388112
4.503378588
4.436627854
4.367375616
4.295813327
4.22216031
4.146486864
4.068877214
3.98930276
3.90766365
3.823766361
3.737322738
3.647957862
3.555167377
3.458326852
3.356702984
3.249416545
3.135457244
3.013673972
2.882799992
2.741526883
2.588642791
2.423329161
2.245653947
2.057213494
1.86169005
1.66478978
1.473290023
1.293475881
1.129816759
0.9845013922
0.8577473506
0.7484570485
0.6548450464
0.5748765817
0.5064907028
4.866919923
4.846047232
4.869884212
4.842934902
4.822269213
4.797003221
4.766505337
4.731479928
4.692105928
4.648572474
4.601049958
4.54976732
4.49497622
4.43694166
4.375947157
4.312298412
4.246235082
4.178021955
4.10789456
4.036000469
3.962471188
3.887342623
3.810575908
3.732073105
3.651628941
3.5689284
3.483584332
3.395087192
3.302814636
3.206030212
3.103857875
2.995304015
2.879235903
2.754426498
2.619620678
2.473688741
2.315929258
2.146541352
1.967231313
1.78166767
1.59532769
1.41453543
1.24502034
1.09077826
0.9537064768
0.833933183
0.7304164096
0.6415021224
0.5653187959
0.4999553762
4.691697482
4.670913928
4.693132675
4.665953837
4.644366166
4.618154114
4.586611566
4.550557485
4.510182567
4.465698058
4.417366214
4.365463304
4.310281986
4.252120073
4.191286372
4.128082137
4.062808281
3.995731407
3.927056376
3.856967717
3.785561068
3.712858173
3.638850071
3.563389555
3.486251678
3.407136177
3.325642442
3.241252357
3.153350784
3.061201251
2.963938966
2.860586649
2.750039555
2.63111613
2.502618029
2.363497326
2.213161299
2.051917955
1.881543717
1.705643991
1.529435615
1.358798519
1.198956601
1.053493355
0.9240818525
0.8107945391
0.7126516799
0.6281260331
0.5554971497
0.4929909175
4.520892305
4.500236849
4.520883877
4.493522788
4.471137297
4.444080273
4.411661787
4.374701216
4.333493623
4.288269714
4.239332899
4.18700168
4.131604777
4.073473718
4.012945101
3.950359707
3.886002337
3.820135402
3.753001789
3.684739719
3.615453157
3.545177188
3.473849772
3.40133
3.327387669
3.251726869
3.173932456
3.093482976
3.0097687
2.922058369
2.829511457
2.731167132
2.625955551
2.512739095
2.390381537
2.25791663
2.114845732
1.961567727
1.79989255
1.633323289
1.466797366
1.305772389
1.155012432
1.017750071
0.895472516
0.788223732
0.6950959491
0.6146819571
0.5453973903
0.4855970019
4.353769673
4.333257212
4.35240926
4.324956249
4.301922653
4.274146595
4.241037039
4.203370356
4.161509428
4.115757355
4.066433721
4.013892768
3.958492641
3.900605154
3.840593547
3.778771002
3.715460425
3.650935964
3.585401385
3.519021007
3.451884053
3.383995034
3.315299951
3.245660669
3.174828458
3.102494573
3.028245155
2.95157073
2.871866564
2.78841232
2.700390553
2.606863992
2.50680146
2.399111583
2.28272116
2.156742577
2.020763097
1.875250357
1.722015018
1.564429172
1.407140326
1.255195878
1.112958166
0.9833623671
0.8677436029
0.7661302195
0.6776938026
0.6011397738
0.5350091736
0.4777753557
4.189706173
4.169377549
4.187133062
4.159720532
4.136156549
4.107851638
4.074223829
4.036088235
3.993818745
3.947758301
3.898281528
3.845773854
3.790616344
3.73319062
3.673862386
3.612988791
3.550884146
3.48780338
3.423971564
3.359530445
3.294548246
3.229059676
3.162976406
3.096137848
3.028315716
2.959194439
2.888358502
2.815312617
2.739459847
2.660093569
2.576418162
2.48752688
2.392431497
2.290089076
2.179488217
2.059817376
1.930732818
1.792753137
1.647664947
1.498693026
1.350194573
1.20683112
1.07259784
0.95017315
0.8407792111
0.7444399235
0.6603997305
0.5874768661
0.5243264675
0.4695307731
4.028237617
4.008144082
4.024619907
3.997351575
3.973410547
3.94478317
3.910832217
3.872450295
3.830026425
3.783927429
3.734556456
3.682323388
3.627631732
3.570881075
3.512465464
3.452723909
3.391962728
3.330469922
3.268424861
3.205980476
3.143211027
3.080110165
3.016596539
2.952510396
2.887629187
2.821626093
2.75409029
2.684535316
2.612375147
2.536931492
2.45742922
2.372995313
2.282683615
2.185502176
2.080501407
1.966941683
1.844544066
1.713856325
1.576617632
1.435886018
1.295729506
1.16046415
1.033753133
0.9180490879
0.8144824257
0.7230868121
0.6431768377
0.5736767932
0.5133472381
0.4608708894
3.86903188
3.849238307
3.86453328
3.837508615
3.813378862
3.784605642
3.750586885
3.712169259
3.669832105
3.623950382
3.574943401
3.523237748
3.469262311
3.413436794
3.356124758
3.297687585
3.238449611
3.178648781
3.118499919
3.058126238
2.997586585
2.936887665
2.875937841
2.814568096
2.752550267
2.689566358
2.625215597
2.559021331
2.490411689
2.418736689
2.34324642
2.263101629
2.177398177
2.085196978
1.98561003
1.877958565
1.762015584
1.638350476
1.508643976
1.375779901
1.243542573
1.115911524
0.9962703505
0.886873872
0.7887714925
0.7020185626
0.6259966633
0.5597289556
0.5020735847
0.4518062247
3.711885022
3.69242667
3.706622629
3.679968372
3.655836874
3.627095421
3.593227076
3.555046296
3.513037298
3.467618594
3.419231995
3.368315059
3.315298375
3.260592967
3.204589515
3.147654098
3.090067641
3.032108054
2.973942676
2.915700099
2.857450988
2.799166274
2.740753366
2.682054925
2.622844226
2.56280332
2.501542513
2.438595738
2.3734095
2.305356186
2.233714603
2.157687261
2.076412292
1.989002204
1.894628839
1.792676518
1.682959126
1.566049616
1.44354925
1.318171108
1.1934371
1.073013697
0.9600173472
0.856545584
0.7635784325
0.6811927643
0.6088384763
0.545627775
0.4905114794
0.4423507777
3.556633682
3.537561586
3.550759389
3.52462269
3.500629821
3.472137407
3.438605946
3.400891146
3.359468869
3.314770022
3.267246848
3.217346763
3.16550777
3.11215086
3.057663625
3.002374815
2.946617256
2.890595525
2.834519496
2.77848625
2.722550128
2.666692507
2.610819465
2.554768653
2.498309499
2.4411322
2.382863196
2.3230493
2.261158555
2.196586046
2.128645603
2.05657728
1.979562155
1.896763436
1.807410108
1.710933325
1.607190253
1.496755503
1.381142247
1.262884058
1.145246038
1.031621082
0.9248818546
0.8269798764
0.7388462518
0.6605756715
0.5916866436
0.5313726124
0.478670844
0.4325217788
3.403238266
3.384606469
3.396914994
3.37140244
3.34769896
3.319643862
3.286667094
3.249616252
3.209006987
3.16526147
3.118833883
3.070178129
3.019751502
2.967942933
2.915133732
2.861684655
2.807860709
2.753916985
2.700004193
2.646237404
2.59266953
2.539258959
2.485909979
2.432469506
2.378710228
2.324334348
2.268975294
2.212194457
2.153485997
2.092267572
2.02788249
1.959611242
1.886680055
1.808303744
1.7237719
1.632558125
1.53454948
1.430298586
1.321244132
1.20974723
1.0988236
0.9916081182
0.8907634234
0.798105068
0.7145267556
0.6401414012
0.5745319317
0.5169674884
0.4665654951
0.422339561
3.251747402
3.233615785
3.245123646
3.22032015
3.197074865
3.169602067
3.137381095
3.101212923
3.061615318
3.019034032
2.973922357
2.92673108
2.877890322
2.82780155
2.776862755
2.725375352
2.673635219
2.62184716
2.570194722
2.518759814
2.467580411
2.416626377
2.365805459
2.314957408
2.263856304
2.21221388
2.159680204
2.105833224
2.050191774
1.992200256
1.931236642
1.866615622
1.797608096
1.723478286
1.6435607
1.557380956
1.464857805
1.366515271
1.263699037
1.158609082
1.054034701
0.9528646178
0.8575759031
0.7698620605
0.6905825322
0.6198713019
0.5573708691
0.5024206428
0.4542122994
0.4118274923
3.102295944
3.084692169
3.095461248
3.071463146
3.048815013
3.022074607
2.990767085
2.955666859
2.917283096
2.876059428
2.832446865
2.786891773
2.73981537
2.69163491
2.642688378
2.593306859
2.543746447
2.494229274
2.444889583
2.395833747
2.34708678
2.298603874
2.250294363
2.202005177
2.153515632
2.104553304
2.054775583
2.003778456
1.951103134
1.896220073
1.838540233
1.777417969
1.712168632
1.642108914
1.56661596
1.485255545
1.397960951
1.305244188
1.208358198
1.109335108
1.010759778
0.9152984401
0.8252473255
0.742201735
0.6669842544
0.5997539413
0.5402049069
0.487744131
0.4416313501
0.4010117997
2.95501303
2.937974265
2.948079689
2.924993007
2.903030935
2.877175836
2.846913792
2.813029034
2.776022026
2.736322092
2.694373431
2.650623319
2.605480007
2.559322497
2.512504651
2.465333926
2.418055044
2.370867097
2.323917149
2.277280367
2.230976708
2.184970113
2.139169679
2.093418967
2.047503322
2.001159084
1.954061056
1.905825301
1.856014378
1.804129572
1.749612857
1.691854834
1.630211228
1.564041234
1.492774291
1.416017733
1.333714537
1.246342912
1.155081844
1.061806207
0.9688950899
0.8788225385
0.7937163512
0.7150822074
0.6437098989
0.5797821218
0.5230398923
0.4729536114
0.428845781
0.3899211991
2.810104364
2.793666158
2.803187917
2.781063128
2.759885598
2.735020684
2.70594858
2.673408153
2.637906718
2.59987031
2.55973181
2.517912707
2.474807939
2.430797577
2.386213877
2.341337272
2.296415531
2.251626119
2.207094713
2.162910409
2.119075261
2.075545477
2.032231838
1.988984725
1.945600459
1.901824
1.857341614
1.811791467
1.764755215
1.715758845
1.664279509
1.609747127
1.551560633
1.48912001
1.421893108
1.349519957
1.271968716
1.189681174
1.10374627
1.015907567
0.9283501821
0.8433654548
0.7629328545
0.6884713027
0.6207438724
0.55995392
0.5058856411
0.4580678861
0.4158813062
0.3785866076
2.667819763
2.652018672
2.661006417
2.639882454
2.619589632
2.595779921
2.567991727
2.536910798
2.503029489
2.466763473
2.428532908
2.388742094
2.347783511
2.30601009
2.263726353
2.22122381
2.178705937
2.136353962
2.094286096
2.052561816
2.011188693
1.970132339
1.929293782
1.888524137
1.847627099
1.806359144
1.764422483
1.721477074
1.67712821
1.63092505
1.582374795
1.530940718
1.476060112
1.417183388
1.35381733
1.285629171
1.212589701
1.135127223
1.054242193
0.9715414521
0.8890447016
0.8088656527
0.7328541087
0.6623439108
0.5980767369
0.5402722929
0.4887554557
0.4431085018
0.4027658979
0.3670408938
1.985329917
1.946078517
1.907170136
1.868563248
1.830166164
1.791835144
1.753384419
1.71457622
1.675127046
1.634713798
1.592961193
1.549449353
1.503717955
1.455263276
1.403558266
1.348088222
1.288401555
1.224200577
1.155456059
1.082565325
1.006462265
0.9286195534
0.8509056483
0.7752704998
0.7034439076
0.6366812716
0.5757040634
0.520744118
0.4716656734
0.4280994726
0.3895294142
0.3553184587
)
;

boundaryField
{
    front_top
    {
        type            wedge;
    }
    front_middle
    {
        type            wedge;
    }
    front_bottom
    {
        type            wedge;
    }
    back_top
    {
        type            wedge;
    }
    back_middle
    {
        type            wedge;
    }
    back_bottom
    {
        type            wedge;
    }
    axis_top
    {
        type            symmetryPlane;
    }
    axis_middle
    {
        type            symmetryPlane;
    }
    axis_bottom
    {
        type            symmetryPlane;
    }
    wall_top
    {
        type            calculated;
        value           nonuniform 0();
    }
    wall_middle
    {
        type            calculated;
        value           nonuniform List<scalar> 
23
(
0.4986062599
0.4962560963
0.4933878304
0.4900151844
0.4861460689
0.4817851582
0.4769353297
0.4715985966
0.4657773087
0.4594751037
0.4526970581
0.4454511262
0.4377478267
0.4296001743
0.4210246832
0.4120408953
0.4026712985
0.3929414002
0.3828794879
0.3725162003
0.3618842705
0.3510183023
0.3399543194
)
;
    }
    wall_bottom
    {
        type            calculated;
        value           nonuniform 0();
    }
    inlet
    {
        type            calculated;
        value           nonuniform 0();
    }
    outlet
    {
        type            calculated;
        value           nonuniform 0();
    }
    procBoundary4to3
    {
        type            processor;
        value           nonuniform List<scalar> 
51
(
2.528439042
2.513282487
2.521772399
2.501693052
2.48233626
2.459666544
2.433214104
2.403666974
2.371484563
2.337068178
2.300823265
2.263149002
2.224402031
2.184912782
2.145000506
2.104894617
2.064826552
2.024932559
2.024932559
1.880114764
1.843313823
1.806846909
1.770670461
1.734687413
1.698756386
1.662698658
1.626289463
1.589261642
1.551309747
1.512077251
1.471170206
1.428152747
1.382555019
1.333893678
1.281686674
1.225513964
1.165104841
1.100442183
1.031888781
0.9603110627
0.8870656098
0.8138711239
0.7425369484
0.6746740663
0.6114698963
0.5536244237
0.5013796117
0.4546353352
0.4130668613
0.376203277
0.3434549459
)
;
    }
    procBoundary4to5
    {
        type            processor;
        value           nonuniform List<scalar> 
51
(
6.841740577
6.818874044
6.858325486
6.830179613
6.815217125
6.795673078
6.77129836
6.742655022
6.709609452
6.671859564
6.629309456
6.581739483
6.528974223
6.470883158
6.407368063
6.338355846
6.263810786
6.183722192
6.09811843
6.007035778
5.910551057
5.808710945
5.701516818
5.588999099
5.471052466
5.34754378
5.218292452
5.082947562
4.941068359
4.792108104
4.635375063
4.46998931
4.294911265
4.108895792
3.910507899
3.54001477
3.54001477
3.319968248
3.083277443
2.829709303
2.561074505
2.282326929
2.001979876
1.730756033
1.478908377
1.253613125
1.057998583
0.8917492914
0.7523981915
0.6365051
0.5404338756
)
;
    }
}


// ************************************************************************* //
