/*--------------------------------*- C++ -*----------------------------------*\
  =========                 |
  \\      /  F ield         | OpenFOAM: The Open Source CFD Toolbox
   \\    /   O peration     | Website:  https://openfoam.org
    \\  /    A nd           | Version:  7
     \\/     M anipulation  |
\*---------------------------------------------------------------------------*/
FoamFile
{
    version     2.0;
    format      ascii;
    class       volVectorField;
    location    "0.0018";
    object      grad(generalizedNewtonian:nu);
}
// * * * * * * * * * * * * * * * * * * * * * * * * * * * * * * * * * * * * * //

dimensions      [0 1 -1 0 0 0 0];

internalField   nonuniform List<vector> 
1167
(
(-801.3073615 0 15824.15126)
(667.3509465 0 15751.00437)
(46.66002023 0 15890.46198)
(-1020.558532 0 15892.37413)
(-873.6048999 0 15899.8353)
(-1126.670414 0 15925.28883)
(-1383.398658 1.427287194e-10 15958.57763)
(-1638.799917 1.271850122e-10 15995.23875)
(-1914.413419 0 16041.34273)
(-2211.67027 0 16091.6017)
(-2527.473169 9.873548993e-11 16149.58677)
(-2862.54885 0 16213.06342)
(-3217.878539 0 16280.30112)
(-3591.011586 0 16349.08959)
(-3980.234503 0 16417.88262)
(-4384.069697 0 16484.24068)
(-4800.931036 -7.416700243e-11 16545.79294)
(-5228.32797 0 16599.81189)
(-5665.266186 3.494683727e-11 16644.41352)
(-6112.683343 0 16678.18303)
(-6569.996996 0 16698.97925)
(-7038.491206 0 16708.35079)
(-7521.830728 0 16704.95389)
(-8024.870441 -3.155615117e-11 16693.60447)
(-8551.797799 0 16674.52207)
(-9109.857506 0 16652.12929)
(-9709.669644 0 16633.81746)
(-10361.18668 0 16625.2919)
(-11075.48304 0 16633.54239)
(-11866.68365 -2.960795146e-11 16667.92968)
(-12752.7049 0 16740.78688)
(-13752.37499 0 16864.25083)
(-14887.39628 -1.457770111e-11 17053.13925)
(-16180.81738 0 17323.17353)
(-17654.32053 3.299570937e-12 17689.19905)
(-798.0390994 0 14788.13777)
(634.7623726 0 14723.29448)
(28.53472546 0 14866.81199)
(-1024.863184 0 14885.83373)
(-889.5570777 0 14911.03494)
(-1143.825025 1.687320807e-10 14961.24107)
(-1403.153834 0 15020.48468)
(-1661.417384 0 15086.25563)
(-1938.445734 0 15162.23347)
(-2234.163265 0 15246.07085)
(-2549.844301 0 15334.95872)
(-2882.939505 0 15430.1176)
(-3232.058199 -4.508096027e-11 15528.02644)
(-3596.322438 0 15626.0034)
(-3974.224743 0 15721.65035)
(-4363.515098 0 15812.12759)
(-4762.636784 0 15894.84503)
(-5170.253909 3.696607714e-11 15967.04499)
(-5585.476013 0 16026.78429)
(-6006.220179 0 16072.23846)
(-6435.504675 0 16103.13611)
(-6875.217058 0 16118.85164)
(-7328.555818 0 16122.00116)
(-7800.932424 0 16114.07926)
(-8297.172571 0 16097.65249)
(-8826.596513 6.318256674e-11 16079.06242)
(-9398.535495 0 16063.4792)
(-10023.36707 0 16057.52156)
(-10713.09193 0 16068.15191)
(-11483.4148 1.522620018e-11 16106.27984)
(-12351.75463 -1.513271177e-11 16183.54452)
(-13337.20389 -1.505555322e-11 16311.9499)
(-14462.03747 1.49934719e-11 16506.42144)
(-15748.63246 -1.494537069e-11 16780.89017)
(-17217.16686 0 17149.59811)
(-18877.56975 -1.488736896e-11 17619.86713)
(-20713.45746 0 18183.60886)
(-22654.83565 0 18800.76664)
(-24543.28875 0 19375.65764)
(-26109.54494 0 19745.3915)
(-27011.87383 -7.465907898e-12 19704.22326)
(-26964.57949 -7.484399415e-12 19087.40765)
(-25885.21185 0 17862.2586)
(-23943.66518 7.533795915e-12 16156.14184)
(-21470.0026 0 14190.59537)
(-18807.9771 -3.799363792e-12 12185.54224)
(-16218.05711 0 10299.61139)
(-13853.10658 0 8619.112184)
(-11779.77431 0 7174.869297)
(-9999.457524 4.843586136e-13 5958.160857)
(-798.3692746 0 13886.97695)
(597.3879543 0 13828.74147)
(1.126494902 3.514273639e-10 13974.73647)
(-1042.090542 0 14007.34014)
(-922.9926677 2.063752542e-10 14048.81435)
(-1181.781611 0 14119.98629)
(-1445.911677 7.552346188e-11 14199.47033)
(-1708.078406 -6.729866614e-11 14290.71757)
(-1989.280882 0 14389.89942)
(-2286.266804 1.123296198e-10 14499.38817)
(-2599.63669 0 14614.94278)
(-2929.520821 -9.808432454e-11 14733.58869)
(-3272.93364 0 14853.53775)
(-3628.298917 0 14972.44131)
(-3993.834129 -4.226041045e-11 15086.88578)
(-4367.744462 0 15194.09899)
(-4748.125013 7.848944213e-11 15290.37041)
(-5132.777041 3.803563857e-11 15373.26766)
(-5521.831823 -3.698353283e-11 15441.37026)
(-5916.743817 -3.606489027e-11 15492.71204)
(-6316.631007 0 15528.16679)
(-6725.792291 0 15546.96122)
(-7148.711323 0 15552.58787)
(-7589.241214 0 15545.32241)
(-8055.461314 0 15531.07935)
(-8555.392067 0 15513.99865)
(-9099.037737 0 15499.75148)
(-9696.703414 1.591567046e-11 15495.07915)
(-10361.78939 1.578122087e-11 15508.35134)
(-11111.05825 -1.566674885e-11 15550.42332)
(-11961.13513 1.557055552e-11 15631.66567)
(-12931.5932 0 15764.62685)
(-14043.64613 -1.542728691e-11 15963.11062)
(-15319.49174 0 16240.78121)
(-16778.13483 -1.534169433e-11 16610.21952)
(-18424.46193 0 17075.12166)
(-20234.22454 0 17622.85248)
(-22124.66587 -1.530551126e-11 18205.68658)
(-23921.4646 -7.657599329e-12 18721.25766)
(-25348.33248 7.667401913e-12 19005.817)
(-26082.37897 -7.681923426e-12 18870.32102)
(-25883.51044 0 18182.30202)
(-24720.2415 7.7242908e-12 16941.93064)
(-22788.36164 0 15288.33271)
(-20408.01958 0 13429.54526)
(-17891.42875 0 11559.4882)
(-15465.47452 0 9812.454841)
(-13259.31541 0 8258.887773)
(-11327.6015 0 6922.468578)
(-9669.520071 4.960237855e-13 5794.170009)
(-801.6381208 0 13106.41957)
(556.2074204 0 13053.60982)
(-33.36837214 0 13200.65857)
(-1071.723143 0 13244.70605)
(-971.6198549 -1.062170388e-10 13301.5014)
(-1235.746194 0 13387.41156)
(-1507.676486 7.774070127e-11 13484.29764)
(-1775.888303 1.38548879e-10 13594.03482)
(-2060.022802 0 13713.35562)
(-2360.502567 0 13840.39916)
(-2673.15935 0 13974.43492)
(-2998.102326 0 14111.04907)
(-3334.683863 0 14247.30065)
(-3680.066827 0 14380.01443)
(-4032.217161 0 14505.94441)
(-4388.311955 -4.183351387e-11 14621.91554)
(-4747.160034 0 14724.91787)
(-5109.204013 0 14813.35246)
(-5472.673591 0 14884.43798)
(-5838.233221 0 14938.12266)
(-6208.974217 3.629599735e-11 14973.32365)
(-6587.855382 -3.557038906e-11 14993.36718)
(-6978.880026 0 14997.26543)
(-7388.805156 0 14990.61997)
(-7824.928739 0 14976.55812)
(-8294.928847 0 14959.11041)
(-8809.874796 0 14945.67717)
(-9381.371504 1.638292726e-11 14942.73676)
(-10022.88481 0 14959.17968)
(-10750.21849 3.225339542e-11 15004.64855)
(-11580.56741 -1.602768041e-11 15089.27125)
(-12534.1176 1.594595845e-11 15225.82278)
(-13631.90365 0 15427.10126)
(-14894.63476 0 15706.52871)
(-16337.93794 0 16073.83337)
(-17962.96425 0 16530.498)
(-19738.0389 0 17059.1629)
(-21568.15176 7.877427435e-12 17605.37479)
(-23267.70879 0 18062.08707)
(-24559.89302 0 18269.33895)
(-25144.12948 7.907451545e-12 18056.41221)
(-24823.56086 0 17320.13582)
(-23608.2007 -7.951062727e-12 16085.19982)
(-21708.94064 3.989677277e-12 14495.18458)
(-19430.43862 -4.005877837e-12 12742.66362)
(-17054.68305 4.024063164e-12 10998.22845)
(-14780.26922 0 9376.297913)
(-12717.46682 2.033073103e-12 7935.184517)
(-10912.09476 0 6693.629428)
(-9362.757388 -1.550117727e-12 5643.220143)
(-807.2299173 0 12433.99216)
(512.4652541 -3.020552732e-10 12385.17217)
(-74.10280623 0 12532.59574)
(-1112.008561 0 12587.4767)
(-1031.661098 1.093818422e-10 12655.33734)
(-1303.21026 0 12751.52192)
(-1583.826158 0 12863.18097)
(-1859.686749 -1.426770302e-10 12985.02667)
(-2147.838913 0 13119.00266)
(-2449.326645 0 13259.68)
(-2762.010822 0 13404.79715)
(-3083.306873 0 13552.36498)
(-3411.599195 0 13698.00556)
(-3745.085583 0 13838.18952)
(-4081.903397 0 13969.70839)
(-4420.132231 0 14089.46376)
(-4758.542165 -4.160052925e-11 14194.77067)
(-5094.992657 -8.063773402e-11 14283.27955)
(-5431.200545 0 14353.69754)
(-5768.724285 0 14405.444)
(-6109.651805 -3.73774593e-11 14439.55156)
(-6457.520537 0 14456.10957)
(-6818.042471 0 14458.71642)
(-7198.181404 3.539990956e-11 14450.9523)
(-7603.212639 3.489645557e-11 14434.73119)
(-8044.466369 -1.722829217e-11 14417.31336)
(-8532.642839 1.703684395e-11 14405.1806)
(-9078.121777 1.687106687e-11 14404.10526)
(-9695.610292 0 14422.94048)
(-10400.65788 0 14470.97315)
(-11210.71122 0 14558.54474)
(-12145.65364 1.642107835e-11 14697.86521)
(-13226.03697 -1.635336634e-11 14900.78423)
(-14471.70432 0 15179.68184)
(-15895.77941 1.626263582e-11 15542.63852)
(-17494.34507 0 15988.59711)
(-19227.15007 1.622509623e-11 16495.24026)
(-20989.81123 0 17003.4867)
(-22589.37266 -8.117274757e-12 17404.04231)
(-23753.49663 -8.127665782e-12 17542.86071)
(-24207.19467 0 17268.4993)
(-23792.9589 0 16503.41643)
(-22552.41663 4.093984815e-12 15289.80195)
(-20702.3721 -4.10855223e-12 13770.17958)
(-18529.32971 0 12120.98065)
(-16287.89431 0 10492.58601)
(-14152.94041 0 8983.344796)
(-12219.79165 0 7642.282173)
(-10527.80429 0 6484.84147)
(-9075.885595 5.191869806e-13 5503.655798)
(-814.1087066 -9.106201086e-10 11857.59404)
(466.6383681 -3.111912967e-10 11812.52758)
(-120.866422 -1.918952425e-10 11960.83668)
(-1160.523868 0 12023.93021)
(-1099.527251 0 12098.08128)
(-1380.874278 0 12202.7488)
(-1671.047088 -1.649569103e-10 12323.58197)
(-1954.091156 7.349623384e-11 12454.63085)
(-2247.78345 1.333528035e-10 12596.09907)
(-2550.266918 -6.133705525e-11 12745.40464)
(-2860.863274 1.141122926e-10 12898.16693)
(-3177.326548 -5.355847974e-11 13050.53209)
(-3497.230932 0 13199.66994)
(-3818.697986 0 13342.042)
(-4139.960405 4.615219277e-11 13473.98596)
(-4458.358851 0 13592.4159)
(-4773.470294 0 13695.13893)
(-5086.307448 0 13780.42302)
(-5395.669624 0 13846.96679)
(-5704.520481 0 13894.82951)
(-6015.72515 -3.850798551e-11 13924.21854)
(-6333.777768 0 13937.22056)
(-6665.173856 0 13937.49256)
(-7014.24196 0 13925.90423)
(-7390.692819 -1.797597043e-11 13908.4968)
(-7805.061126 -1.77493824e-11 13891.76027)
(-8266.17428 0 13879.82753)
(-8786.114452 0 13879.81258)
(-9379.610924 -1.723452143e-11 13900.52154)
(-10062.0094 0 13950.46113)
(-10851.05301 1.700445571e-11 14040.25859)
(-11765.94708 0 14181.18683)
(-12826.64735 -1.684799348e-11 14384.64861)
(-14051.71211 0 14661.70757)
(-15451.46885 1.675451869e-11 15018.48557)
(-17017.61584 1.672876671e-11 15451.15664)
(-18702.67194 0 15933.89617)
(-20393.8677 0 16404.13823)
(-21893.83953 0 16752.02448)
(-22939.24968 0 16831.93571)
(-23281.62593 8.389355562e-12 16511.10411)
(-22797.82298 8.410134335e-12 15733.21607)
(-21552.90652 4.217812286e-12 14552.19866)
(-19763.42585 4.232820327e-12 13106.19863)
(-17696.57603 0 11556.02322)
(-15582.34742 0 10034.60136)
(-13575.76536 0 8627.16996)
(-11760.27652 -2.156974744e-12 7375.690636)
(-10170.54039 -2.169596129e-12 6293.377757)
(-8806.387276 -1.652491554e-12 5374.176245)
(-823.1505328 0 11368.14779)
(417.9213134 0 11326.50717)
(-171.7419111 -1.97788461e-10 11474.77815)
(-1213.315541 -1.452448387e-10 11542.34357)
(-1173.385414 0 11619.77653)
(-1465.338827 0 11730.88386)
(-1765.424871 8.501141827e-11 11855.26688)
(-2055.128339 0 11992.39322)
(-2353.515432 0 12137.04815)
(-2658.473991 1.264415058e-10 12288.76376)
(-2966.431515 -1.176167501e-10 12443.2023)
(-3276.433586 0 12596.20613)
(-3586.92711 5.221266686e-11 12744.38134)
(-3894.905777 -4.970082652e-11 12884.07736)
(-4199.014099 0 13012.24865)
(-4498.421842 0 13126.01054)
(-4792.185932 0 13223.6372)
(-5079.103674 4.281402756e-11 13302.59)
(-5362.167109 0 13362.95482)
(-5643.121226 0 13404.36953)
(-5925.578735 0 13428.22516)
(-6215.600188 0 13437.1203)
(-6516.924053 1.910053367e-11 13432.29704)
(-6837.873818 -1.879532844e-11 13418.01666)
(-7187.67012 0 13399.91972)
(-7574.858319 0 13381.98964)
(-8009.569623 0 13369.4485)
(-8504.771792 1.791514425e-11 13370.07134)
(-9074.430248 0 13391.93718)
(-9733.928801 0 13443.38323)
(-10501.26499 -1.752667288e-11 13534.82289)
(-11394.77244 -1.743730795e-11 13676.355)
(-12433.69794 -3.473081097e-11 13879.15209)
(-13634.8816 1.730969482e-11 14152.72007)
(-15006.04438 0 14501.67849)
(-16534.70841 -8.621258614e-12 14919.69347)
(-18166.91654 0 15377.63578)
(-19783.64743 0 15810.59793)
(-21186.60434 8.619617805e-12 16110.27172)
(-22124.24132 0 16140.75436)
(-22373.93584 -8.646997748e-12 15786.60658)
(-21841.71096 0 15008.76753)
(-20608.94342 0 13868.38407)
(-18887.53806 0 12497.04183)
(-16925.53174 4.380528478e-12 11040.88258)
(-14930.9686 0 9617.844719)
(-13042.43114 0 8302.707759)
(-11334.04639 4.446433467e-12 7131.850954)
(-9836.935465 -2.236225738e-12 6117.042502)
(-8552.239227 5.420575974e-13 5253.683318)
(-833.1105826 1.935719625e-09 10956.48183)
(368.3406684 3.307521406e-10 10916.70826)
(-224.3660988 -4.079147641e-10 11062.97262)
(-1268.49397 0 11131.54594)
(-1250.664747 1.197737026e-10 11212.01936)
(-1552.899407 -1.007601633e-10 11324.88977)
(-1863.13122 0 11450.37245)
(-2160.109999 0 11587.45732)
(-2461.150544 -1.417350861e-10 11733.38038)
(-2766.758116 0 11883.23624)
(-3072.345199 0 12034.3302)
(-3376.078528 0 12183.51838)
(-3676.159099 5.384115338e-11 12326.60596)
(-3970.865281 0 12460.37691)
(-4258.560301 0 12582.03252)
(-4537.705803 0 12687.86395)
(-4808.152008 4.555280204e-11 12776.83391)
(-5071.752341 -4.414937518e-11 12847.61487)
(-5328.528945 -4.292815691e-11 12899.9324)
(-5582.528055 0 12933.79358)
(-5838.33774 0 12951.64033)
(-6099.768751 4.011029904e-11 12954.13332)
(-6374.133585 -1.969626954e-11 12945.1113)
(-6668.578733 0 12928.14787)
(-6991.709184 0 12907.1841)
(-7352.448026 0 12887.32199)
(-7761.863149 0 12874.34205)
(-8233.186092 0 12875.65166)
(-8779.642763 0 12898.38515)
(-9416.540344 -1.818497585e-11 12951.02097)
(-10161.16755 1.807332088e-11 13043.12238)
(-11031.72124 -1.798116872e-11 13184.28296)
(-12046.7942 0 13385.12214)
(-13221.28237 -1.784957545e-11 13653.7332)
(-14560.37583 2.671150975e-11 13993.37918)
(-16047.29814 2.667045383e-11 14395.35456)
(-17622.97611 0 14828.0285)
(-19164.10922 -8.882836995e-12 15225.40011)
(-20474.09575 -8.888459275e-12 15482.01279)
(-21315.21917 -8.899837556e-12 15472.29893)
(-21489.22715 0 15096.35949)
(-20926.26322 -4.469388982e-12 14328.7734)
(-19718.21913 8.965870643e-12 13234.40917)
(-18069.40987 0 11937.04802)
(-16209.54071 4.517154914e-12 10569.53266)
(-14327.62165 0 9237.142569)
(-12547.94179 -2.28016785e-12 8005.874791)
(-10937.12736 0 6907.848994)
(-9524.244574 0 5954.018632)
(-8311.794614 2.873724721e-12 5141.241784)
(-843.2830918 1.997050088e-09 10611.31319)
(319.0988292 0 10572.40933)
(-276.054483 -2.104194752e-10 10714.82517)
(-1324.913324 0 10783.73166)
(-1329.224178 -1.235685583e-10 10865.18959)
(-1640.839992 0 10975.42473)
(-1959.552611 -9.044035187e-11 11100.25634)
(-2264.411315 8.059104934e-11 11233.24)
(-2568.983217 -7.31128782e-11 11375.26797)
(-2873.156584 6.725810817e-11 11520.88423)
(-3175.161786 6.256394997e-11 11666.38)
(-3471.930257 0 11808.15954)
(-3761.647788 -1.11094064e-10 11942.74443)
(-4042.514445 0 12067.11729)
(-4312.319268 5.060740453e-11 12178.12946)
(-4571.783782 4.866739912e-11 12273.98427)
(-4821.423603 -4.699607634e-11 12353.12066)
(-5060.631919 -4.554818393e-11 12414.03105)
(-5292.993351 0 12456.74725)
(-5521.76778 0 12482.86623)
(-5750.921695 0 12492.55149)
(-5986.952357 0 12489.59436)
(-6235.393937 -2.032031712e-11 12475.3379)
(-6503.577887 -1.999562131e-11 12453.9643)
(-6801.437975 -1.971124559e-11 12430.41264)
(-7138.094435 0 12409.18048)
(-7523.922983 0 12396.00871)
(-7971.746848 0 12397.60487)
(-8494.898757 -1.889822231e-11 12420.6807)
(-9108.841235 1.876114045e-11 12473.66566)
(-9830.17551 -1.864594771e-11 12565.47168)
(-10676.59019 0 12705.49011)
(-11665.71482 0 12903.25667)
(-12810.77082 0 13165.74439)
(-14114.58671 -9.185941737e-12 13494.82576)
(-15556.42092 0 13879.82374)
(-17073.10255 9.164737586e-12 14287.33529)
(-18539.00615 -1.832855351e-11 14651.22224)
(-19761.56469 0 14870.08212)
(-20517.7056 0 14828.63882)
(-20631.43333 0 14440.59588)
(-20052.4872 0 13691.05277)
(-18878.45207 0 12645.90891)
(-17304.46924 -4.641427343e-12 11420.98266)
(-15543.21041 0 10136.91849)
(-13766.71139 -4.681430502e-12 8887.979362)
(-12087.65755 0 7733.159211)
(-10566.35505 0 6701.334875)
(-9230.238295 -2.379033858e-12 5802.788083)
(-8083.71605 5.644812289e-13 5036.044234)
(-853.0906051 -1.030671067e-09 10322.48002)
(271.7555309 0 10283.30603)
(-327.252925 -4.343872321e-10 10422.1755)
(-1381.040004 0 10491.20034)
(-1404.994756 -1.275466635e-10 10569.24241)
(-1726.380306 0 10675.35184)
(-2053.564024 0 10795.39492)
(-2363.102021 0 10923.49366)
(-2671.246255 0 11057.25837)
(-2975.182063 0 11194.69226)
(-3272.238568 6.45781029e-11 11330.94294)
(-3560.667237 0 11462.48569)
(-3838.938783 5.73352857e-11 11586.13276)
(-4105.607542 0 11698.9595)
(-4359.626651 0 11798.48014)
(-4600.281985 -5.023417335e-11 11882.79797)
(-4827.859634 -4.850904481e-11 11949.92629)
(-5044.973525 0 11999.97073)
(-5253.874293 2.285703403e-11 12032.80872)
(-5458.165387 0 12049.31649)
(-5663.767463 -2.179232921e-11 12051.82462)
(-5874.712569 2.135666982e-11 12041.55512)
(-6098.101051 0 12021.5889)
(-6343.362542 0 11996.71157)
(-6618.009151 0 11970.9171)
(-6931.078222 0 11947.74614)
(-7294.07875 0 11933.42264)
(-7719.131926 0 11934.36905)
(-8219.389321 0 11957.1451)
(-8810.311007 0 12009.935)
(-9507.936128 -1.924622618e-11 12100.80212)
(-10329.31938 0 12238.8668)
(-11290.78044 -1.90691366e-11 12432.57681)
(-12404.07507 -9.503980203e-12 12688.06649)
(-13669.88355 -9.481669401e-12 13005.87014)
(-15063.9841 9.467095957e-12 13373.56171)
(-16520.16701 0 13756.75288)
(-17912.1963 0 14089.90361)
(-19053.34418 9.465294168e-12 14276.43468)
(-19735.44426 0 14210.96353)
(-19802.37057 4.747680187e-12 13818.95027)
(-19219.42043 -4.759439184e-12 13093.23729)
(-18086.81285 -4.773864629e-12 12099.26741)
(-16588.83088 0 10944.52549)
(-14921.86721 9.620609971e-12 9738.55853)
(-13243.88312 0 8566.547976)
(-11657.86774 0 7481.715194)
(-10218.80544 2.44133798e-12 6510.143335)
(-8953.043626 0 5662.040706)
(-7866.906063 5.754617344e-13 4937.373814)
(-861.5913167 0 10081.17279)
(225.3744435 3.637415739e-10 10041.77297)
(-377.4246161 0 10177.53501)
(-1433.773795 0 10243.72816)
(-1476.602122 1.317200095e-10 10315.84314)
(-1806.415085 -1.108100474e-10 10417.13497)
(-2141.761832 0 10528.80467)
(-2455.82345 0 10649.22936)
(-2764.639378 0 10774.14859)
(-3067.000343 -7.169492588e-11 10900.1319)
(-3359.351347 0 11024.34494)
(-3639.930748 0 11143.4732)
(-3907.310627 0 11254.56244)
(-4160.16494 0 11354.37308)
(-4397.064085 0 11440.17613)
(-4618.792962 -5.187784285e-11 11510.98156)
(-4827.119893 0 11565.83349)
(-5022.647887 0 11604.00992)
(-5209.309794 0 11626.01637)
(-5391.791027 -2.301859154e-11 11633.37388)
(-5573.832537 0 11627.1457)
(-5762.019914 -2.205546319e-11 11609.79177)
(-5963.812314 -2.16607883e-11 11585.22103)
(-6186.920693 0 11556.14123)
(-6439.017621 0 11526.54869)
(-6729.695833 0 11501.01081)
(-7070.968591 0 11485.51639)
(-7474.26824 2.031650812e-11 11485.65058)
(-7952.540113 2.014488197e-11 11507.97215)
(-8520.534096 0 11560.05352)
(-9193.925542 3.975193123e-11 11649.44056)
(-9989.361825 -1.977462216e-11 11784.83493)
(-10921.88695 1.969308159e-11 11973.77768)
(-12001.79536 0 12221.6601)
(-13227.47274 0 12527.6803)
(-14572.15075 0 12878.16132)
(-15967.48031 9.769308122e-12 13238.15931)
(-17287.91434 0 13543.38739)
(-18354.09553 0 13702.69325)
(-18972.46827 -9.787513065e-12 13619.925)
(-19004.06053 0 13230.39122)
(-18426.42386 -9.830337505e-12 12532.91516)
(-17339.90359 4.930066194e-12 11590.88731)
(-15917.70231 0 10503.46207)
(-14341.18772 -4.967698875e-12 9370.646911)
(-12755.38335 4.990250593e-12 8269.695336)
(-11255.33416 0 7248.943898)
(-9892.136377 -2.52121892e-12 6332.551966)
(-8691.160158 0 5530.689437)
(-7660.422178 -1.965574437e-12 4844.576098)
(-869.7408393 0 9880.339376)
(180.4846642 0 9840.631308)
(-424.3357899 -4.635231077e-10 9971.632397)
(-1480.968305 -1.701927876e-10 10032.2636)
(-1542.323214 0 10098.52478)
(-1879.431544 0 10192.13823)
(-2220.797869 -1.992267727e-10 10294.96941)
(-2539.54455 8.876510502e-11 10404.16771)
(-2848.394185 8.052845023e-11 10517.7404)
(-3147.644778 -7.407985233e-11 10631.65735)
(-3434.629772 6.890958299e-11 10742.6852)
(-3707.030863 0 10847.64793)
(-3963.078127 0 10943.79591)
(-4201.399154 0 11028.46065)
(-4422.89324 -2.787016448e-11 11100.0736)
(-4627.787124 -2.680177768e-11 11157.37093)
(-4816.45278 0 11198.76533)
(-4992.361174 0 11224.63676)
(-5158.869987 2.439013553e-11 11235.86109)
(-5319.87948 0 11233.00465)
(-5481.418777 0 11218.66145)
(-5649.269741 0 11194.60646)
(-5829.679997 2.238133267e-11 11163.79116)
(-6031.593983 -2.202370414e-11 11130.16997)
(-6263.484034 -2.171048513e-11 11097.28304)
(-6534.265212 0 11069.83786)
(-6855.031909 0 11053.11532)
(-7237.192177 2.099233525e-11 11052.16127)
(-7693.875332 0 11073.52491)
(-8239.132989 0 11124.23955)
(-8888.171579 -1.026856907e-11 11211.70961)
(-9656.965207 0 11343.89266)
(-10559.45248 0 11527.55905)
(-11604.54833 1.014144551e-11 11767.26927)
(-12788.54289 1.01176382e-11 12061.16332)
(-14082.53241 1.010208731e-11 12394.57488)
(-15417.04323 0 12732.55533)
(-16668.70356 0 13012.81402)
(-17666.30519 -1.010016464e-11 13149.72325)
(-18230.28585 5.056547001e-12 13055.46235)
(-18237.12018 0 12673.84362)
(-17672.8813 0 12007.70823)
(-16635.32661 0 11117.24767)
(-15287.36432 0 10094.19452)
(-13797.1195 0 9029.849353)
(-12297.77324 0 7994.554017)
(-10877.42722 0 7032.76182)
(-9584.355795 0 6167.088426)
(-8443.170996 0 5407.691415)
(-7463.473709 0 4757.049003)
(-876.4029158 0 9711.916745)
(138.5532558 0 9670.750124)
(-465.8536894 0 9795.630185)
(-1522.2641 1.759497724e-10 9850.178788)
(-1600.639249 0 9910.263371)
(-1943.606253 0 9993.555529)
(-2289.334705 -1.029829344e-10 10086.91382)
(-2610.454329 0 10183.76989)
(-2919.669953 -8.325242626e-11 10283.60756)
(-3215.733979 0 10383.51853)
(-3496.098281 0 10479.7531)
(-3759.323873 0 10569.48267)
(-4004.255396 0 10650.18746)
(-4230.148856 0 10719.93479)
(-4436.563134 0 10776.76237)
(-4624.133321 0 10819.10431)
(-4795.515139 -2.675682781e-11 10847.25057)
(-4953.058525 2.593248222e-11 10860.67737)
(-5100.370155 -2.521516252e-11 10860.47567)
(-5243.065166 0 10848.15192)
(-5385.127656 0 10825.10643)
(-5533.063919 0 10793.60988)
(-5695.39865 -2.313840923e-11 10757.39435)
(-5878.923817 -2.27686836e-11 10719.82935)
(-6091.607819 0 10683.55652)
(-6343.432926 0 10653.59308)
(-6644.700864 0 10634.84399)
(-7006.531763 0 10632.3355)
(-7442.205933 0 10652.48166)
(-7965.241362 1.068150031e-11 10701.57559)
(-8590.138304 0 10786.78149)
(-9331.888906 1.056178789e-11 10915.291)
(-10203.5037 0 11093.29875)
(-11212.74433 1.048449265e-11 11324.61531)
(-12353.98529 -1.045988e-11 11606.42614)
(-13596.99473 1.044380306e-11 11923.4827)
(-14872.03348 0 12241.14267)
(-16058.54027 0 12499.44874)
(-16993.77033 -1.044181538e-11 12618.22498)
(-17511.32258 0 12517.3516)
(-17501.25375 5.237491706e-12 12147.89388)
(-16956.24929 -1.050092797e-11 11514.88781)
(-15970.1856 0 10675.28998)
(-14694.78829 0 9713.534125)
(-13286.13828 0 8713.130313)
(-11867.98342 0 7738.711098)
(-10521.93829 2.678652281e-12 6831.387989)
(-9293.721054 0 6012.361512)
(-8207.871309 -2.708966552e-12 5292.108734)
(-7275.331113 6.071277442e-13 4674.190969)
(-881.0449895 0 9567.215888)
(100.6483517 0 9523.790853)
(-502.2028123 0 9642.414779)
(-1556.950537 1.820039908e-10 9691.69067)
(-1649.60439 1.455469804e-10 9743.172049)
(-1997.252101 -1.224420485e-10 9816.287595)
(-2346.655336 -2.130529049e-10 9897.476663)
(-2668.028629 0 9982.343392)
(-2975.771957 0 10068.09125)
(-3268.086841 7.922091745e-11 10152.59389)
(-3542.264878 0 10233.14029)
(-3796.940143 0 10307.24351)
(-4031.06848 0 10372.23878)
(-4243.561511 -3.113965641e-11 10425.72046)
(-4435.277143 2.980432495e-11 10466.88885)
(-4608.14535 5.732358677e-11 10495.10905)
(-4762.879418 -2.767749791e-11 10509.4)
(-4903.416844 5.364957496e-11 10510.49741)
(-5034.180328 0 10499.31149)
(-5158.872458 2.543490936e-11 10477.02568)
(-5283.719073 0 10445.50425)
(-5415.269441 4.874135827e-11 10407.60053)
(-5560.484082 2.393457394e-11 10365.85447)
(-5726.278884 0 10323.25538)
(-5921.289807 0 10283.45054)
(-6155.682464 2.292451703e-11 10251.06973)
(-6439.000328 -2.266976994e-11 10230.40848)
(-6782.202087 0 10226.55777)
(-7197.755951 1.112976969e-11 10245.4083)
(-7698.826815 2.209807566e-11 10292.64165)
(-8299.708611 0 10375.18716)
(-9014.357454 -3.277561873e-11 10499.65214)
(-9854.845876 2.176031245e-11 10671.77524)
(-10827.69643 0 10894.58408)
(-11925.66203 0 11164.40445)
(-13117.38135 0 11465.74845)
(-14333.88137 0 11764.64774)
(-15458.68433 0 12003.81866)
(-16337.80502 0 12108.33927)
(-16817.11733 1.081493224e-11 12005.15884)
(-16797.12795 0 11650.88235)
(-16275.15013 0 11052.14195)
(-15341.38372 -5.447587228e-12 10262.15887)
(-14136.66216 5.466971105e-12 9358.529289)
(-12805.51813 -2.744585153e-12 8418.023213)
(-11463.4191 0 7500.120535)
(-10186.63849 0 6643.097522)
(-9018.691337 2.785877423e-12 5867.162656)
(-7984.209388 0 5183.113216)
(-7095.337744 2.027005572e-12 4595.46342)
(-882.9543646 0 9438.475279)
(66.65973518 -4.1599622e-10 9393.191323)
(-533.7387582 0 9506.492144)
(-1583.604711 0 9549.531929)
(-1688.730034 0 9591.147609)
(-2038.644019 0 9654.547798)
(-2390.724226 -1.102560578e-10 9722.575134)
(-2712.414284 9.824874847e-11 9793.772256)
(-3016.835998 0 9865.358241)
(-3304.377712 8.199452674e-11 9934.789954)
(-3571.936 0 9999.415816)
(-3817.70178 3.579811733e-11 10056.99162)
(-4040.407802 3.385876235e-11 10105.32852)
(-4240.983263 3.222988935e-11 10143.14578)
(-4420.098229 0 10169.63952)
(-4577.89981 -2.966527354e-11 10183.04467)
(-4717.945591 0 10184.05118)
(-4843.427896 2.776395219e-11 10173.03722)
(-4958.183599 2.699597187e-11 10150.78241)
(-5067.998781 0 10119.22831)
(-5177.457532 0 10079.63563)
(-5293.040335 -2.522392269e-11 10034.64819)
(-5422.770764 -2.477254916e-11 9987.381275)
(-5573.503426 -2.437671167e-11 9940.517196)
(-5753.203944 0 9897.624679)
(-5971.467835 0 9862.785743)
(-6237.891726 0 9840.106431)
(-6563.349025 0 9834.576044)
(-6959.512718 0 9851.531203)
(-7439.09238 0 9896.608815)
(-8016.161426 1.136566061e-11 9976.345072)
(-8703.83827 1.130770942e-11 10096.69845)
(-9513.125595 1.126108222e-11 10262.8577)
(-10449.27201 0 10477.16016)
(-11504.07419 0 10735.41984)
(-12645.74423 -1.118139192e-11 11022.06)
(-13805.97146 0 11303.97396)
(-14872.47175 -1.117219264e-11 11526.51428)
(-15700.37741 0 11620.13696)
(-16147.31968 0 11517.95566)
(-16123.62078 0 11181.2223)
(-15628.33443 -1.124255117e-11 10617.19945)
(-14746.48061 5.638313139e-12 9875.200067)
(-13610.05973 0 9026.692086)
(-12352.56521 0 8142.217073)
(-11081.76737 0 7276.815892)
(-9869.6879 5.735661788e-12 6466.391112)
(-8757.922336 0 5730.414226)
(-7771.273155 0 5079.947832)
(-6922.939137 6.268760357e-13 4520.357191)
(-883.3305384 1.260682781e-09 9320.659607)
(35.41145928 0 9273.890648)
(-559.700612 0 9381.63558)
(-1601.070098 -1.950888957e-10 9416.710303)
(-1717.500137 0 9449.647518)
(-2068.403355 0 9501.836375)
(-2419.819071 -1.141850124e-10 9558.202935)
(-2740.895414 -1.017498246e-10 9614.816097)
(-3042.419969 0 9671.533244)
(-3324.163964 0 9725.478748)
(-3583.982346 7.8989801e-11 9774.199917)
(-3820.712679 0 9815.697091)
(-4033.761411 0 9848.411686)
(-4223.050137 -3.337839572e-11 9871.13723)
(-4388.759142 0 9882.068521)
(-4533.770721 3.072239015e-11 9881.794365)
(-4660.207766 0 9869.687888)
(-4771.665057 0 9846.878692)
(-4873.347245 0 9814.332813)
(-4968.747553 0 9773.411669)
(-5064.317529 0 9725.922618)
(-5167.17922 0 9674.828964)
(-5283.457643 0 9622.411981)
(-5420.000277 2.524537124e-11 9571.200374)
(-5585.401458 0 9524.90631)
(-5788.935899 0 9487.523676)
(-6039.822881 0 9462.83583)
(-6348.682761 0 9455.624717)
(-6726.70478 0 9470.792848)
(-7186.152784 1.18433918e-11 9513.927385)
(-7740.155624 0 9590.830875)
(-8401.116513 0 9706.968667)
(-9179.405296 -1.166236882e-11 9867.130677)
(-10079.06578 0 10073.0763)
(-11090.7134 0 10320.07929)
(-12182.66986 1.15798388e-11 10592.86365)
(-13288.52339 -1.157089349e-11 10859.32267)
(-14301.02247 1.157031166e-11 11067.72878)
(-15083.54011 -1.157763498e-11 11153.48021)
(-15503.32865 0 11054.86481)
(-15479.54569 -5.80720548e-12 10737.25814)
(-15013.47556 0 10207.85674)
(-14183.49148 5.839233397e-12 9512.144341)
(-13112.36142 2.930005393e-12 8715.685038)
(-11924.70324 0 7883.592547)
(-10720.96945 0 7067.123316)
(-9569.462723 0 6299.991079)
(-8510.250847 0 5601.169629)
(-7568.198432 -1.501818622e-12 4981.890569)
(-6757.567687 6.362553094e-13 4448.347228)
(-881.3618306 0 9208.890083)
(8.179317519 -4.46450837e-10 9159.996108)
(-578.5310189 0 9261.157242)
(-1609.911789 0 9288.660996)
(-1735.358672 0 9313.676054)
(-2085.79669 1.360065552e-10 9354.028977)
(-2435.716007 0 9398.4634)
(-2753.420494 0 9442.172205)
(-3050.700705 0 9484.030423)
(-3326.673037 0 9522.590929)
(-3579.188296 -4.092782237e-11 9555.949963)
(-3807.125473 0 9582.186894)
(-4009.821107 0 9599.148939)
(-4187.57197 -3.458940343e-11 9606.329833)
(-4342.42568 -3.310613975e-11 9603.315299)
(-4475.034201 0 9589.39009)
(-4589.233502 0 9565.014211)
(-4688.842767 5.959303991e-11 9531.09778)
(-4777.643756 -2.897231676e-11 9488.565127)
(-4861.613103 0 9439.099469)
(-4945.555765 0 9384.478373)
(-5036.088432 0 9327.10768)
(-5140.112909 2.658611965e-11 9269.527412)
(-5264.716914 0 9214.439242)
(-5418.022932 0 9165.355826)
(-5608.4822 1.273208281e-11 9125.619388)
(-5845.176724 0 9099.056839)
(-6138.538628 0 9090.227468)
(-6499.34646 0 9103.611016)
(-6939.221381 -1.227308416e-11 9144.481834)
(-7470.553236 1.219772791e-11 9218.250352)
(-8105.290912 0 9330.148687)
(-8852.982758 -1.208549339e-11 9484.433118)
(-9716.616688 -1.204672158e-11 9682.283795)
(-10686.49138 -1.201844165e-11 9918.676717)
(-11730.77689 0 10178.74065)
(-12784.2427 0 10431.11431)
(-13745.52487 0 10627.55139)
(-14486.99202 0 10707.75034)
(-14885.01847 0 10614.86384)
(-14864.8107 6.017897772e-12 10317.42331)
(-14428.68944 6.032802876e-12 9822.135358)
(-13649.79228 0 9170.680424)
(-12641.36789 0 8423.442534)
(-11519.78357 9.145916186e-12 7640.407255)
(-10379.23541 0 6869.577016)
(-9284.486891 0 6142.741346)
(-8274.514976 0 5478.493962)
(-7374.186201 1.556306389e-12 4888.255921)
(-6598.700056 2.211305522e-12 4378.945288)
(-876.7777875 0 9096.837423)
(-14.42754566 0 9045.465993)
(-591.1009364 0 9140.24837)
(-1610.480196 0 9161.813601)
(-1742.43359 0 9177.732036)
(-2089.928417 1.410321928e-10 9207.994479)
(-2437.808033 0 9239.788057)