/*--------------------------------*- C++ -*----------------------------------*\
  =========                 |
  \\      /  F ield         | OpenFOAM: The Open Source CFD Toolbox
   \\    /   O peration     | Website:  https://openfoam.org
    \\  /    A nd           | Version:  7
     \\/     M anipulation  |
\*---------------------------------------------------------------------------*/
FoamFile
{
    version     2.0;
    format      ascii;
    class       volScalarField;
    location    "0.0018";
    object      rho;
}
// * * * * * * * * * * * * * * * * * * * * * * * * * * * * * * * * * * * * * //

dimensions      [1 -3 0 0 0 0 0];

internalField   nonuniform List<scalar> 
1167
(
948.0321027
947.9832934
947.8783753
947.7224204
947.5176706
947.2658498
946.9681705
946.6253914
946.2383259
945.8072353
945.3323015
944.8137975
944.2515427
943.6454147
942.9952874
942.3010189
941.5625029
940.7796903
939.9527762
939.0819491
938.1674914
937.2100695
936.2103842
935.1693713
934.0880549
932.9679651
931.8105412
930.6174849
929.3907135
928.1324797
926.8451092
925.5310446
924.1929901
922.8336705
921.4560583
947.9045929
947.8543208
947.7462462
947.5855688
947.374583
947.1151719
946.8082176
946.4548803
946.055529
945.6109199
945.1210392
944.5860457
944.0059944
943.3809282
942.7107742
941.9955587
941.235366
940.4303534
939.5808119
938.6871852
937.7503785
936.7709134
935.7501053
934.6889358
933.5890218
932.4519631
931.2795726
930.0738449
928.8370472
927.571654
926.2801521
924.9652727
923.6298307
922.2767056
920.9089466
919.5295835
918.1417574
916.7485552
915.3531611
913.958513
912.5676137
911.1834061
909.808633
908.4459735
907.0977556
905.7661609
904.4530658
903.1600396
901.8880987
900.6378794
947.7747127
947.7229422
947.6116348
947.4461247
947.2289373
946.9616026
946.6452904
946.2811235
945.8695395
945.4110406
944.9060957
944.3546906
943.7569807
943.1130875
942.4231249
941.6872673
940.9057562
940.0790062
939.2076924
938.2924586
937.3341645
936.3341861
935.2935712
934.2140221
933.0972219
931.9451
930.7597579
929.543452
928.2987978
927.0283481
925.734778
924.4210013
923.0899074
921.7446195
920.3881021
919.0234255
917.6536724
916.2818417
914.9109364
913.5438631
912.1834794
910.8324177
909.4931505
908.1680667
906.8593055
905.5687593
904.2979999
903.0483667
901.820579
900.6150814
947.6424325
947.5891335
947.4745301
947.3042044
947.0805952
946.8052082
946.479533
946.1042751
945.6803659
945.2080797
944.687826
944.1200065
943.5047225
942.8421958
942.1327031
941.3765787
940.5744357
939.7268306
938.8344784
937.8985503
936.9201912
935.9008032
934.8419841
933.7456304
932.61363
931.4482492
930.251885
929.0270109
927.7763553
926.5026652
925.2088374
923.8978625
922.5727017
921.2364653
919.8921773
918.5429768
917.1917916
915.8415044
914.4949885
913.154944
911.8240588
910.5047502
909.1993219
907.9098937
906.6383138
905.3862126
904.1549065
902.9454659
901.7584524
900.5941429
947.5077273
947.4528758
947.3349935
947.1597907
946.9295943
946.6461503
946.3109257
945.9246451
945.4882003
945.0021524
944.4668171
943.8825907
943.2498469
942.5689557
941.8403614
941.0645834
940.2423257
939.3744083
938.4621489
937.5065391
936.5092647
935.4718257
934.3963369
933.2846279
932.1390902
930.962287
929.7565907
928.5248236
927.2698688
925.9945962
924.7020572
923.3952677
922.0773
920.7512268
919.4200594
918.0868143
916.7543783
915.4255878
914.1030979
912.7894619
911.4871607
910.198375
908.9251816
907.6694562
906.4328404
905.2167359
904.0222426
902.8502044
901.7010191
900.5748177
947.3705987
947.3142499
947.1930709
947.0128222
946.775976
946.4845365
946.13958
945.7423242
945.2933512
944.7934711
944.24314
943.642773
942.9928652
942.2939442
941.5466225
940.7516325
939.9100586
939.0229006
938.0914178
937.1173635
936.1022505
935.0482663
933.9573283
932.8318382
931.67447
930.4876828
929.2742518
928.0371817
926.779448
925.5040583
924.2141442
922.9127374
921.6029829
920.2878849
918.9704421
917.6535679
916.3400286
915.0325184
913.7335422
912.4455277
911.1707299
909.9111317
908.6686229
907.4448338
906.2411951
905.0589028
903.8988638
902.7617237
901.6477388
900.5569152
947.2311696
947.1732379
947.0486489
946.8633187
946.6199112
946.3203163
945.9657074
945.5573864
945.0960788
944.5824419
944.0171295
943.4008216
942.7340458
942.0175026
941.2520726
940.4386704
939.5784285
938.6726897
937.7232651
936.7316353
935.7001344
934.6306817
933.5257675
932.3880537
931.2201483
930.0248566
928.8051883
927.564256
926.3050946
925.0308839
923.7447362
922.4497172
921.1489751
919.8454649
918.5421555
917.2418351
915.9471394
914.6606408
913.3846772
912.1215268
910.8732161
909.6415502
908.4282269
907.2346701
906.0621108
904.9115456
903.783814
902.6793087
901.5981637
900.5402783
947.0892697
947.0297473
946.9017328
946.7113064
946.461405
946.1535647
945.7894513
945.369983
944.8964253
944.3692867
943.7893437
943.1573516
942.474086
941.7404201
940.9573366
940.1260329
939.2479749
938.3247702
937.3581015
936.3503226
935.3033545
934.2198411
933.1023318
931.9536074
930.7765572
929.5741886
928.3497094
927.1062401
925.8469063
924.5749574
923.2935185
922.0057356
920.7146526
919.4232032
918.1342591
916.8505054
915.5744692
914.308559
913.0549797
911.815855
910.5929902
909.3880312
908.202491
907.0376143
905.8944517
904.7738102
903.6762909
902.6023569
901.5519182
900.5247755
946.9448924
946.8837764
946.7523321
946.5570126
946.3004195
945.9844319
945.6107929
945.1805057
944.694584
944.1541222
943.5597984
942.9124935
942.2131511
941.4628139
940.6627219
939.8144331
938.9193607
937.9794326
936.9968461
935.9737135
934.9126552
933.8162732
932.6873388
931.5289432
930.3441567
929.1360334
927.9079019
926.6629915
925.4045396
924.1358142
922.8599318
921.5800576
920.2991536
919.0201168
917.7457036
916.4784777
915.2208679
913.9751083
912.7432761
911.5273116
910.3288418
909.1493562
907.9901827
906.8525043
905.7371332
904.6447049
903.5756985
902.5303567
901.5086839
900.510296
946.7980357
946.735328
946.6006126
946.400261
946.1370028
945.8130671
945.4298357
944.9888471
944.4909758
943.9372841
943.3287975
942.6665416
941.9516356
941.1852969
940.3689503
939.5041962
938.592974
937.6374144
936.6397106
935.6025098
934.5284404
933.420282
932.2813145
931.1145252
929.9230747
928.7103255
927.4796629
926.2343532
924.9777391
923.7130671
922.4434518
921.1720177
919.9016669
918.6352557
917.3754123
916.124574
914.8850762
913.6589786
912.448241
911.2546165
910.0795789
908.9244759
907.7904543
906.6784594
905.5892963
904.5234932
903.4813359
902.4628679
901.4681884
900.4967454
946.6487904
946.5845837
946.4464906
946.2410813
945.9712958
945.6393968
945.2468388
944.7951362
944.2855175
943.7190155
943.0967872
942.420016
941.6899907
940.9081294
940.0760802
939.1958304
938.2693558
937.2989477
936.2873188
935.2370163
934.151008
933.0324481
931.884465
930.7103287
929.513362
928.2971304
927.0650065
925.8202868
924.5663623
923.3064436
922.0437052
920.7811688
919.521693
918.2680339
917.0227145
915.7880624
914.5662685
913.3592678
912.1688957
910.9967137
909.8440569
908.712239
907.6021638
906.5146324
905.450258
904.4095319
903.3926849
902.3995713
901.4301957
900.484042
946.4971916
946.4314101
946.2899326
946.0795051
945.8033838
945.4634904
945.061814
944.5996191
944.0783595
943.4993418
942.8637342
942.1728918
941.4282699
940.6315759
939.7847274
938.8896346
937.9487203
936.9645803
935.9398595
934.8775658
933.7808149
932.6527634
931.4968509
930.3165752
929.1152664
927.8965181
926.6637766
925.4204473
924.1699138
922.9153582
921.6599614
920.4066535
919.1582421
917.9173705
916.6864563
915.4677202
914.2632416
913.0748299
911.9041799
910.752677
909.6215331
908.5118413
907.4244687
906.3601675
905.3193337
904.3022547
903.3092903
902.340071
901.3944998
900.472115
946.3431355
946.2757921
946.1309603
945.9157307
945.6331913
945.2855234
944.8747688
944.4024023
943.8698388
943.2785281
942.6299079
941.9255052
941.1669486
940.3560817
939.4949308
938.5858802
937.6314842
936.6343959
935.5976891
934.5244327
933.417811
932.2814902
931.118819
929.9332772
928.7285066
927.5081311
926.2756093
925.0344425
923.7879808
922.5393571
921.2917094
920.0479038
918.810705
917.582638
916.365999
915.1629262
913.9753117
912.8048678
911.6531595
910.5214727
909.4109403
908.3224599
907.2567318
906.2143846
905.1958656
904.2012491
903.230744
902.284063
901.3609178
900.4609017
946.1866373
946.1177481
945.969693
945.7496823
945.4607657
945.1055712
944.6857999
944.2034648
943.6599363
943.0567835
942.3956043
941.6780921
940.9060706
940.0815952
939.2070541
938.2848616
937.3177042
936.3087536
935.2609255
934.1776412
933.0623803
931.9186553
930.750067
929.5602523
928.3530158
927.1319128
925.9004364
924.6621008
923.4202078
922.177949
920.9383598
919.704248
918.4782994
917.2629316
916.0603305
914.8725612
913.7014118
912.5484491
911.4150869
910.3024489
909.2115124
908.1432646
907.0981965
906.0767324
905.0793119
904.105967
903.1566861
902.2312836
901.3292877
900.4503464
946.0277351
945.9574109
945.806186
945.5813472
945.2862623
944.9235695
944.495185
944.0029287
943.4486947
942.8340558
942.1607472
941.4306253
940.6457774
939.8085415
938.921221
937.9865958
937.0077413
935.9876159
934.9297098
933.8374113
932.7142759
931.5641539
930.390706
929.1975912
927.9886345
926.7674871
925.5376894
924.3027452
923.0659103
921.8304095
920.5991859
919.3749604
918.1603212
916.9575931
915.7688703
914.5960723
913.440843
912.3047041
911.1889937
910.0947023
909.0226662
907.9735945
906.9481904
905.946651
904.9691831
904.0159914
903.0867911
902.1814958
901.2994648
900.4403998
945.8666288
945.7948009
945.6403544
945.4107628
945.1097369
944.7395724
944.3027694
943.8010566
943.2363583
942.6105488
941.9255673
941.183438
940.3863907
939.5368386
938.6374842
937.6913804
936.7014258
935.6712219
934.6040383
933.5035555
932.3736677
931.2180394
930.0404596
928.8447995
927.6349449
926.4145201
925.1870938
923.9561274
922.724848
921.4964233
920.2737132
919.0594236
917.8560304
916.6657554
915.4906055
914.3324568
913.1927843
912.0730109
910.974251
909.8974645
908.8435382
907.8129343
906.8061332
905.8235486
904.8650743
903.9309474
903.0208068
902.1344817
901.2713165
900.4310168
945.7031593
945.6298504
945.4722325
945.2381392
944.931114
944.5538141
944.1086109
943.597696
943.0229516
942.3864142
941.690187
940.9364829
940.1277339
939.2666342
938.3560834
937.3990064
936.3990654
935.3593759
934.2839025
933.1762186
932.0402518
930.8799418
929.6991819
928.5018523
927.2918013
926.0726836
924.8481318
923.6215578
922.3961725
921.1750664
919.961084
918.7568472
917.5647168
916.3868049
915.2250393
914.081089
912.9564107
911.8524546
910.7701138
909.7102035
908.6734928
907.6605433
906.6715706
905.7069403
904.7665753
903.8504853
902.9584245
902.090043
901.2447219
900.4221565
945.5373608
945.4625942
945.3019457
945.0633979
944.750436
944.3662105
943.9129077
943.3929008
942.8084232
942.1615359
941.4545029
940.6897401
939.8700434
938.9980393
938.0767912
937.1098107
936.1003287
935.0522551
933.9691582
932.855034
931.7139913
930.549848
929.3665686
928.1681861
926.9585654
925.7414194
924.5203073
923.2985859
922.0794868
920.8659952
919.6608531
918.4666346
917.2856159
916.1198238
914.9711976
913.8411971
912.7312019
911.6424153
910.575827
909.5321795
908.5120236
907.5158616
906.5439502
905.5963778
904.6732385
903.7742814
902.8993729
902.0479964
901.2195882
900.4137812
945.3692728
945.2931711
945.1295789
944.8865252
944.5679104
944.1767544
943.7156579
943.1869332
942.5929423
941.9360639
941.2187246
940.4435282
939.6132527
938.7308565
937.799859
936.8234328
935.8054353
934.7494665
933.6597247
932.5400343
931.3945108
930.2272324
929.0422835
927.8436269
926.6350933
925.4203948
924.2031218
922.986583
921.7740005
920.5682907
919.3721586
918.1880375
917.0181228
915.8643546
914.7284828
913.6119706
912.5162414
911.4422581
910.3908294
909.3627402
908.3585142
907.3783642
906.4227495
905.4914748
904.5847031
903.7020355
902.8434158
902.0081712
901.1958013
900.405856
945.1991565
945.1216446
944.9550392
944.7075621
944.3834784
943.9855416
943.5167997
942.979648
942.3765584
941.7100732
940.982804
940.1975505
939.357259
938.4653431
937.5249831
936.5399769
935.5140086
934.4511735
933.3553169
932.2307768
931.0816755
929.9120162
928.7259556
927.527545
926.3206094
925.1089389
923.896003
922.6850703
921.4793115
920.2815538
919.094433
917.9203273
916.7613571
915.619453
914.4961814
913.3929162
912.3108921
911.2512068
910.2145038
909.2013311
908.2123657
907.2476785
906.3075215
905.3918681
904.50063
903.6335173
902.7903323
901.9704083
901.1732561
900.3983484
945.0268371
944.9479375
944.77837
944.5267683
944.1971159
943.7927387
943.3164211
942.7710317
942.1591454
941.4834081
940.7466226
939.9518771
939.1022849
938.2011704
937.2522008
936.2592149
935.2260679
934.15685
933.0558251
931.9271325
930.7749801
929.603588
928.4171549
927.2196559
926.0149007
924.8066369
923.5983434
922.393269
921.1945115
920.0048835
918.8269215
917.6629032
916.514835
915.3845034
914.2734975
913.1831805
912.114617
911.0686591
910.0461525
909.0474785
908.0730567
907.1232017
906.197839
905.2971135
904.4206974
903.5684275
902.739914
901.9345579
901.1518622
900.3912279
944.8523628
944.7720974
944.5997429
944.343982
944.008889
943.5981959
943.1146871
942.5612681
941.940814
941.2561892
940.5103884
939.7065576
938.8479812
937.9383383
936.9813917
935.9809793
934.9413174
933.8665098
932.7607743
931.6286517
930.4742436
929.3017468
928.1154099
926.9192597
925.7171543
924.5127891
923.3095498
922.1106923
920.919197
919.7377692
918.568926
917.4149035
916.2776611
915.1588532
914.0599182
912.98209
911.9266264
910.8941194
909.8851956
908.9005085
907.9401389
907.0044737
906.0933404
905.2068518
904.3445985
903.5064922
902.6919629
901.9004777
901.131534
900.3844658
944.6758156
944.5943076
944.4191821
944.1592376
943.8190217
943.4019443
942.9114248
942.3503018
941.7216159
941.0284166
940.2738937
939.4613426
938.5943914
937.6767736
936.7122568
935.7051939
934.6595245
933.5797081
932.4701123
931.3350505
930.1788318
929.0058762
927.8202969
926.6260728
925.4270411
924.2268768
923.0289421
921.8364971
920.6524773
919.4794566
918.3198679
917.1758316
916.0491946
914.9416927
913.8546542
912.7891829
911.746295
910.7268485
909.7311979
908.7599005
907.8131499
906.8910558
905.9936376
905.1207396
904.2720628
903.4474687
902.6462895
901.8680321
901.1121898
900.3780346
932.1832167
931.0459402
929.8886179
928.7156249
927.5311864
926.3392895
925.1438082
923.9482925
922.756056
921.5702863
920.3938012
919.2291944
918.0788687
916.9448417
915.8288509
914.7324639
913.6569998
912.6036369
911.5731575
910.5662686
909.58352
908.6251488
907.6915438
906.7825244
905.8982951
905.0384462
904.2028302
903.3911242
902.602712
901.8370999
901.0937516
900.3719083
)
;

boundaryField
{
    front_top
    {
        type            wedge;
    }
    front_middle
    {
        type            wedge;
    }
    front_bottom
    {
        type            wedge;
    }
    back_top
    {
        type            wedge;
    }
    back_middle
    {
        type            wedge;
    }
    back_bottom
    {
        type            wedge;
    }
    axis_top
    {
        type            symmetryPlane;
    }
    axis_middle
    {
        type            symmetryPlane;
    }
    axis_bottom
    {
        type            symmetryPlane;
    }
    wall_top
    {
        type            calculated;
        value           nonuniform 0();
    }
    wall_middle
    {
        type            calculated;
        value           uniform 900.0184441;
    }
    wall_bottom
    {
        type            calculated;
        value           nonuniform 0();
    }
    inlet
    {
        type            calculated;
        value           nonuniform 0();
    }
    outlet
    {
        type            calculated;
        value           nonuniform 0();
    }
    procBoundary4to3
    {
        type            processor;
        value           nonuniform List<scalar> 
51
(
944.4974153
944.4145833
944.2366396
943.9726536
943.6273445
943.204211
942.706653
942.1380417
941.5013816
940.7999149
940.037024
939.2163344
938.3414415
937.4161672
936.4448819
935.4314399
934.3805344
933.2962543
933.2962543
931.8999808
930.7608468
929.6028658
928.4304476
927.2477141
926.0586039
924.8669583
923.6763265
922.4900138
921.3111558
920.1424528
918.9864515
917.8453916
916.7212288
915.6157889
914.5304626
913.4664312
912.4248176
911.4064865
910.4118763
909.4416036
908.4958671
907.5748643
906.6785446
905.8069413
904.9596471
904.1365775
903.3372355
902.5610563
901.8075667
901.0761446
900.3660617
)
;
    }
    procBoundary4to5
    {
        type            processor;
        value           nonuniform List<scalar> 
51
(
948.1574061
948.109954
948.0080382
947.8566766
947.6580145
947.4136106
947.1249558
946.7926167
946.4175002
945.9997185
945.5397653
945.0375205
944.4928658
943.9056406
943.275629
942.6025608
941.8861845
941.1262579
940.3226545
939.4753098
938.5844394
937.6503048
936.6732278
935.654008
934.5932821
933.4920601
932.3517392
931.1735913
929.9592088
928.7104987
927.4295751
926.1186137
924.7800855
923.4165714
922.0308335
920.0631197
920.0631197
918.6579833
917.2439232
915.8239646
914.4012971
912.9790429
911.5605531
910.1486159
908.7461362
907.3558428
905.9803256
904.6216716
903.2817332
901.9618344
900.6628371
)
;
    }
}


// ************************************************************************* //
