/*--------------------------------*- C++ -*----------------------------------*\
  =========                 |
  \\      /  F ield         | OpenFOAM: The Open Source CFD Toolbox
   \\    /   O peration     | Website:  https://openfoam.org
    \\  /    A nd           | Version:  7
     \\/     M anipulation  |
\*---------------------------------------------------------------------------*/
FoamFile
{
    version     2.0;
    format      ascii;
    class       volScalarField;
    location    "0.0018";
    object      T;
}
// * * * * * * * * * * * * * * * * * * * * * * * * * * * * * * * * * * * * * //

dimensions      [0 0 0 1 0 0 0];

internalField   nonuniform List<scalar> 
1167
(
438.1936033
438.2659464
438.4214769
438.6527279
438.9564479
439.3301716
439.7722098
440.2815631
440.8571675
441.4987962
442.2063579
442.9796432
443.8191372
444.7252581
445.6984499
446.7392004
447.8479652
449.0251349
450.2707526
451.5848899
452.9674949
454.4179503
455.9355991
457.5194369
459.1683322
460.8803829
462.6538227
464.4864766
466.3758268
468.3188207
470.312268
472.3527695
474.4364854
476.559504
478.7174833
438.3826087
438.45714
438.6173939
438.8557151
439.1687779
439.5538858
440.0098462
440.5350719
441.1291683
441.7911829
442.5213273
443.3195755
444.1860753
445.1210127
446.124767
447.1975897
448.3396655
449.5510894
450.8317741
452.1814187
453.59904
455.0842458
456.6354509
458.2515803
459.930594
461.6704728
463.4688639
465.3231216
467.2301626
469.186559
471.1888333
473.2330951
475.3152833
477.431193
479.5763051
481.7460795
483.9357459
486.1405628
488.355576
490.5761632
492.7975413
495.0149653
497.2239541
499.4200765
501.5994178
503.7582567
505.8933282
508.0018345
510.0818565
512.1320823
438.57518
438.6519541
438.8170477
439.062608
439.3849697
439.781966
440.251984
440.7935001
441.4060274
442.0890023
442.8419296
443.6650538
444.5583869
445.5220124
446.5560449
447.6605291
448.8354284
450.080465
451.3949843
452.7783931
454.2297843
455.7474763
457.3302891
458.9760488
460.6826049
462.4474215
464.2676844
466.1403225
468.0616862
470.0281911
472.0360294
474.0809834
476.1588288
478.2649287
480.394843
482.5439128
484.7074046
486.880661
489.0589622
491.2376847
493.4122286
495.5783004
497.7318142
499.8687726
501.9855374
504.0788332
506.1458722
508.1842201
510.1924364
512.1695214
438.771364
438.8504269
439.020458
439.2732374
439.6052323
440.014318
440.4984136
441.056624
441.6877381
442.3915423
443.1676424
444.0156761
444.9357501
445.9278116
446.991747
448.127375
449.3341147
450.611486
451.958785
453.3746306
454.8576889
456.4062396
458.0182659
459.6912902
461.4228383
463.2098432
465.0490157
466.9369241
468.8697131
470.8434632
472.8539831
474.8968919
476.9678075
479.0620642
481.1750794
483.3020352
485.4383909
487.5796244
489.7211743
491.858702
493.9878383
496.1045976
498.2051332
500.2858534
502.3435682
504.3754098
506.3789942
508.3523188
510.2941983
512.2039085
438.9712008
439.0525899
439.2275366
439.487632
439.8295137
440.2507059
440.7491686
441.3239873
441.9740197
442.6986368
443.4975961
444.3705571
445.3172336
446.3373651
447.4306007
448.5964946
449.834342
451.1432773
452.5216963
453.9684943
455.4815212
457.0589076
458.6978452
460.3959491
462.1499625
463.9563435
465.8118178
467.7123891
469.653931
471.6322976
473.6430183
475.68163
477.7435326
479.8240733
481.9186426
484.0225695
486.1313334
488.2404415
490.3456374
492.4427782
494.5277904
496.597038
498.6470128
500.6744956
502.6766143
504.6508591
506.5951911
508.5079723
510.3882854
512.2356475
439.1746911
439.2583264
439.4382188
439.7058866
440.0577561
440.4909738
441.0040878
441.5954595
442.2644181
443.0099748
443.8316907
444.7292098
445.7020781
446.7498136
447.8718261
449.0673638
450.3351596
451.6740864
453.082635
454.5585536
456.099954
457.7039199
459.3679353
461.0887323
462.8626045
464.6861491
466.5554488
468.4661967
470.4140904
472.394735
474.4034957
476.4358441
478.487024
480.5524464
482.6274788
484.7075699
486.7883491
488.8655105
490.9350011
492.9928458
495.035303
497.0590286
499.0607947
501.0377606
502.9873829
504.9074772
506.7963132
508.6525755
510.4755795
512.2650511
439.3816557
439.4676657
439.6526762
439.9279754
440.2897094
440.7352005
441.2628608
441.8709352
442.55855
443.3249557
444.1694313
445.0912381
446.0898869
447.1646496
448.3145464
449.538563
450.8353703
452.2033324
453.6401115
455.1438698
456.7114727
458.3404057
460.0272717
461.7683903
463.5601384
465.398561
467.2793536
469.1980127
471.150111
473.1309506
475.1358888
477.160305
479.1993977
481.2486153
483.3033317
485.3591551
487.411885
489.4573745
491.4918054
493.511413
495.5127968
497.4928783
499.4487213
501.3778055
503.2779015
505.1471434
506.9839076
508.7872913
510.5568124
512.2923772
439.5923503
439.6807487
439.8709042
440.1538628
440.5253696
440.9832787
441.5252782
442.1501936
442.856357
443.6432526
444.5099885
445.4557263
446.4796189
447.5806917
448.757824
450.0095869
451.3341578
452.7295069
454.1934943
455.7229597
457.3153919
458.9671676
460.6747873
462.4343738
464.2418543
466.0929397
467.9829933
469.9074685
471.8617654
473.841043
475.8406025
477.8556607
479.8815414
481.9136888
483.9475944
485.9789939
488.0038266
490.0181759
492.0184084
494.0009819
495.9628299
497.9011125
499.8131778
501.6967848
503.5499899
505.371231
507.1592724
508.9130988
510.6325976
512.3178414
439.8067883
439.8975812
440.0928923
440.383215
440.7647965
441.2349887
441.7913721
442.4326549
443.1575555
443.9646958
444.8533426
445.8224824
446.8710289
447.9977656
449.2011967
450.479359
451.830517
453.2521627
454.7413787
456.2953697
457.910557
459.5833716
461.3099629
463.0859622
464.9069979
466.768685
468.666173
470.5947179
472.5495144
474.5256582
476.5184293
478.5229789
480.5347234
482.5491311
484.5618412
486.5687506
488.5659254
490.5496999
492.5166209
494.4634189
496.3872966
498.2856518
500.1561204
501.9965536
503.8053884
505.5813398
507.3233715
509.0308307
510.7034551
512.3416255
440.0249759
440.1181625
440.3183975
440.6162968
441.0079228
441.4901124
442.0609923
442.7184832
443.4615212
444.2887875
445.1990427
446.1910686
447.2635274
448.4149515
449.643577
450.9473861
452.3238557
453.7701742
455.2834304
456.8600149
458.4963294
460.1885246
461.9319585
463.7224023
465.5553253
467.425844
469.3289925
471.25994
473.2136861
475.1853273
477.1701132
479.1632253
481.1601416
483.1563625
485.1476992
487.1302207
489.1001155
491.0539723
492.9885047
494.9007258
496.7880695
498.6481508
500.478889
502.278515
504.0454748
505.778657
507.477341
509.1412027
510.7698302
512.3638846
440.2467816
440.3422259
440.5475477
440.8530683
441.2545421
441.7487626
442.3337566
443.0074901
443.7683815
444.6151677
445.5464238
446.5607075
447.6564382
448.8318578
450.0848752
451.4128968
452.8133487
454.2831786
455.8186875
457.4164121
459.0722306
460.7817096
462.5404228
464.3436907
466.1867116
468.0642637
469.9713728
471.9031322
473.8544364
475.8204064
477.7961673
479.7770297
481.7585101
483.7362373
485.7061616
487.6645007
489.6076498
491.5323764
493.4355754
495.3145519
497.1669511
498.9904335
500.7833038
502.5440218
504.271344
505.9642198
507.6220203
509.2447337
510.8321084
512.3847525
440.4721567
440.5699735
440.7803961
441.0934861
441.5045314
442.0108402
442.6096511
443.2993119
444.0779158
444.9438014
445.8955383
446.9314383
448.0496817
449.2480852
450.52416
451.8754342
453.2986633
454.790334
456.3468471
457.9640342
459.6375379
461.3629084
463.1352276
464.9494464
466.8007288
468.6837848
470.5935001
472.5247713
474.4724744
476.4317456
478.3976698
480.3656724
482.3313218
484.290398
486.2389937
488.1734733
490.0903896
491.9866923
493.8594855
495.7063445
497.5251029
499.3137696
501.0707044
502.7944438
504.4840953
506.1389416
507.7581469
509.3420685
510.8906264
512.4043456
440.701259
440.801431
441.0169142
441.3372582
441.7580064
442.2760869
442.888668
443.593793
444.3896234
445.2742949
446.2459847
447.3027574
448.4425429
449.6629618
450.9613688
452.3345818
453.7791591
455.2915
456.8673506
458.5024421
460.1923024
461.9316891
463.7158052
465.53961
467.3977659
469.2849111
471.1958861
473.125411
475.0683854
477.019994
478.9753609
480.929985
482.8794765
484.8197779
486.7471515
488.6580733
490.5493755
492.4181485
494.2616916
496.0777289
497.8642133
499.6194623
501.3421023
503.0308688
504.6847868
506.3034866
507.8863826
509.4337022
510.9456833
512.4227668
440.9340692
441.0365748
441.256928
441.5845015
442.0149004
442.544394
443.1706666
443.890968
444.7035357
445.6063373
446.5973208
447.6743114
448.8349555
450.0765626
451.3959481
452.7898875
454.2547403
455.7861181
457.3800014
459.0315774
460.7359112
462.4879805
464.2825852
466.1144232
467.977883
469.8676835
471.7785865
473.7052655
475.6426691
477.5858638
479.5301082
481.4709678
483.4041531
485.3257547
487.2321898
489.1200324
490.9862649
492.8281961
494.6433562
496.4297217
498.1854899
499.9088302
501.5987041
503.2541774
504.8742894
506.4587415
508.0073109
509.5200639
510.9975437
512.4401074
441.1705346
441.2752108
441.5003587
441.8352383
442.2749854
442.8158609
443.4552359
444.1906578
445.0195916
445.940009
446.9496624
448.0461415
449.2267053
450.4882442
451.8277061
453.2413175
454.7248488
456.2742312
457.8845668
459.5510828
461.2687166
463.0319136
464.8353634
466.6737089
468.5412852
470.4326401
472.3424368
474.2653396
476.1963434
478.1304378
480.0630008
481.9897115
483.9064128
485.8093218
487.6949838
489.5601879
491.4021335
493.2181903
495.0060007
496.7637475
498.4898495
500.1829221
501.8415834
503.4652665
505.0533907
506.6053799
508.1214599
509.6015399
511.0464445
512.4564484
441.4103612
441.517312
441.7473363
442.0894164
442.5381818
443.0904103
443.74261
444.4924727
445.3374283
446.2750069
447.3026642
448.4177468
449.6173065
450.8981268
452.2565576
453.6884135
455.189731
456.7554618
458.3810351
460.0612235
461.7904334
463.5633778
465.3745323
467.2181935
469.0885796
470.9802563
472.8878192
474.8059739
476.7297361
478.6541613
480.5747359
482.4871416
484.3873785
486.2718089
488.1371004
489.9800976
491.7982563
493.5890949
495.3506062
497.0810177
498.7786632
500.4425534
502.0716664
503.6650864
505.2227419
506.7440078
508.2292382
509.678485
511.0926025
512.4718637
441.653789
441.7629831
441.9978132
442.3467264
442.8046057
443.3676961
444.0327058
444.7966438
445.6570113
446.6111049
447.6561434
448.789198
450.0070232
451.3059841
452.6821346
454.131484
455.648909
457.2300935
458.8694018
460.5617576
462.3015028
464.0829135
465.9002855
467.7478808
469.619954
471.5110018
473.4154976
475.3282011
477.2441303
479.1584394
481.0666185
482.9644611
484.8481312
486.7141484
488.5592918
490.3807236
492.1759197
493.9423461
495.6783433
497.3823671
499.0529382
500.6889064
502.2896774
503.8544151
505.3830036
506.8751909
508.3311476
509.7512225
511.1362151
512.4864206
441.900771
442.0121757
442.2516065
442.6072889
443.0741973
443.6478474
444.3252305
445.1030931
445.9784199
446.9484788
448.0102558
449.1605248
450.3954974
451.7116443
453.104775
454.5700098
456.1028753
457.6978429
459.3498703
461.0532257
462.8019585
464.5905145
466.4130625
468.2636094
470.1363626
472.0257065
473.926206
475.8326843
477.7401067
479.6437708
481.5393086
483.4225722
485.2898423
487.1377598
488.9630729
490.763265
492.5359265
494.2789117
495.9904023
497.6689668
499.3134754
500.9228733
502.4965008
504.0339728
505.5348984
506.9994532
508.4276289
509.8200514
511.1774346
512.500181
442.1512521
442.2646865
442.5085928
442.8711276
443.3466504
443.9308777
444.6201896
445.411431
446.3014027
447.2869052
448.3646874
449.5312467
450.782827
452.1154022
453.5240928
455.0045297
456.5512855
458.1592951
459.8225473
461.5355585
463.2923539
465.0869639
466.9133536
468.7656176
470.6379956
472.5248528
474.4206849
476.3203695
478.218866
480.1115611
481.9941269
483.86262
485.7134349
487.543337
489.3493644
491.1289865
492.8797168
494.5997867
496.2876651
497.9418503
499.5612549
501.1452913
502.6929742
504.2043796
505.6790085
507.1172805
508.5190659
509.8852496
511.2164472
512.5132022
442.4048465
442.5204246
442.7689143
443.138185
443.6220562
444.2166478
444.9176787
445.7218773
446.6258877
447.6262727
448.7195106
449.9018098
451.1691651
452.5168652
453.940542
455.4348776
456.9947019
458.6141885
460.2878531
462.009416
463.7728753
465.5723596
467.4017054
469.2548512
471.1260258
473.0094524
474.8997937
476.7919708
478.6810045
480.5624041
482.4319339
484.2857235
486.1202726
487.9323497
489.7192743
491.4786506
493.2082868
494.9061954
496.5711058
498.2018956
499.7972309
501.3567532
502.8798143
504.3662197
505.8158814
507.2290457
508.6058177
509.947077
511.2534253
512.5255375
442.661818
442.7795084
443.03251
443.4080771
443.9004541
444.5049115
445.2175692
446.034455
446.952066
447.9668166
449.0749042
450.2721082
451.554174
452.9165265
454.3540607
455.8613926
457.4330857
459.0633131
460.745941
462.4749786
464.2442792
466.0476214
467.8787577
469.7317247
471.600756
473.4801213
475.3644503
477.248676
479.1279159
480.9976854
482.8538898
484.6928032
486.5110941
488.3057498
490.0740461
491.813597
493.5224761
495.199086
496.8418303
498.4498527
500.0222346
501.5582252
503.0577065
504.5202092
505.9460369
507.3352343
508.6882233
510.005778
511.2885169
512.5372368
442.9220985
443.0418707
443.299127
443.6810488
444.1817486
444.7958959
445.5196169
446.3488914
447.2797738
448.3083572
449.4305559
450.6420663
451.938379
453.3143831
454.7648265
456.284322
457.8668781
459.5066367
461.1975235
462.9329199
464.7068257
466.5130384
468.3452164
470.1972984
472.0634231
473.9379226
475.8155529
477.6912191
479.5602054
481.4181808
483.2610684
485.0851954
486.8872939
488.6645511
490.4144753
492.1348814
493.8235306
495.4792379
497.1007577
498.6867958
500.2369798
501.750444
503.2272312
504.666927
506.0699715
507.4362909
508.766605
510.0615846
511.321862
512.5483475
443.1855693
443.3072412
443.5687328
443.9570521
444.4656083
445.0895579
445.8240835
446.6652717
447.6089352
448.6508955
449.7867788
451.0120598
452.3217126
453.7105425
455.1732881
456.7037753
458.296425
459.9448282
461.6426685
463.3836613
465.1614737
466.9695428
468.8017165
470.6519895
472.5145153
474.38364
476.2541395
478.1208952
479.979246
481.825053
483.6543588
485.4636629
487.2498665
489.0100203
490.7418004
492.4432243
494.1124362
495.7478235
497.3485757
498.913554
500.442205
501.9341129
503.3890122
504.8069272
506.1881224
507.5326092
508.8412713
510.1147187
511.3535943
512.5589146
462.0823174
463.827786
465.6084034
467.4176598
469.2492131
471.097028
472.9551824
474.8181991
476.6809131
478.5383041
480.3858814
482.2194628
484.0351264
485.8295234
487.5997198
489.3430265
491.0571299
492.7399241
494.389924
496.0057583
497.5863025
499.1309336
500.6387849
502.1099114
503.5437514
504.9407438
506.3009107
507.6245676
508.9125182
510.1653779
511.3838416
512.5689809
)
;

boundaryField
{
    front_top
    {
        type            wedge;
    }
    front_middle
    {
        type            wedge;
    }
    front_bottom
    {
        type            wedge;
    }
    back_top
    {
        type            wedge;
    }
    back_middle
    {
        type            wedge;
    }
    back_bottom
    {
        type            wedge;
    }
    axis_top
    {
        type            symmetryPlane;
    }
    axis_middle
    {
        type            symmetryPlane;
    }
    axis_bottom
    {
        type            symmetryPlane;
    }
    wall_top
    {
        type            convectiveRadiativeHeatFlux;
        mode            convectiveRadiative;
        kappaMethod     fluidThermo;
        kappa           none;
        alphaAni        Anialpha;
        h               nonuniform 0();
        Ta              constant 513.15;
        emissivityNozzle 0.95;
        emissivityFilament 0.95;
        dNozzle         2;
        dFilament       1.65;
        refValue        nonuniform 0();
        refGradient     nonuniform 0();
        valueFraction   nonuniform 0();
        value           nonuniform 0();
    }
    wall_middle
    {
        type            fixedValue;
        value           uniform 513.15;
    }
    wall_bottom
    {
        type            fixedValue;
        value           nonuniform 0();
    }
    inlet
    {
        type            fixedValue;
        value           nonuniform 0();
    }
    outlet
    {
        type            zeroGradient;
    }
    procBoundary4to3
    {
        type            processor;
        value           nonuniform List<scalar> 
51
(
443.4519056
443.5756008
443.8414024
444.2359133
444.7522897
445.3855605
446.1309441
446.9837353
447.9398071
448.994697
450.1437461
451.3819343
452.7042853
454.1054703
455.579311
457.1203835
458.7219547
460.3781691
460.3781691
462.5166237
464.2660101
466.0487346
467.8582158
469.6882537
471.5328708
473.3861794
475.2426871
477.0972264
478.9448429
480.781217
482.6022277
484.4042001
486.1838752
487.9381716
489.6646741
491.3612842
493.0259815
494.6571475
496.2538399
497.8148275
499.3395496
500.8274501
502.2783769
503.6920475
505.068901
506.4088605
507.7125286
508.9806296
510.2137491
511.4127267
512.5785877
)
;
    }
    procBoundary4to5
    {
        type            processor;
        value           nonuniform List<scalar> 
51
(
438.007918
438.0782307
438.2292697
438.4536473
438.7482516
439.1108578
439.5393572
440.0330283
440.5906593
441.2122349
441.8971886
442.6458836
443.4586989
444.3360951
445.278635
446.2869824
447.3617945
448.5037356
449.7133175
450.9909803
452.3367604
453.7506438
455.2325412
456.7816532
458.3974383
460.0787953
461.8240348
463.6316573
465.4996677
467.4255766
469.4065575
471.4396666
473.5214752
475.6483496
477.816335
480.9060414
480.9060414
483.1204888
485.3558492
487.6074799
489.8704194
492.1397508
494.4101293
496.6770476
498.9357554
501.1817289
503.4106154
505.618831
507.8031345
509.9611153
512.0910987
)
;
    }
}


// ************************************************************************* //
