/*--------------------------------*- C++ -*----------------------------------*\
  =========                 |
  \\      /  F ield         | OpenFOAM: The Open Source CFD Toolbox
   \\    /   O peration     | Website:  https://openfoam.org
    \\  /    A nd           | Version:  7
     \\/     M anipulation  |
\*---------------------------------------------------------------------------*/
FoamFile
{
    version     2.0;
    format      ascii;
    class       volScalarField;
    location    "0.0018";
    object      thermo:mu;
}
// * * * * * * * * * * * * * * * * * * * * * * * * * * * * * * * * * * * * * //

dimensions      [1 -1 -1 0 0 0 0];

internalField   nonuniform List<scalar> 
1167
(
279066.7754
277079.1271
272861.0045
266725.7104
258908.4089
249650.1384
239189.6997
227759.4036
215595.805
202914.1937
189920.1047
176808.9649
163748.7913
150891.9771
138371.3101
126298.5255
114764.7689
103840.9466
93580.52035
84016.86588
75166.50374
67033.35939
59607.04004
52866.90213
46783.16449
41321.25165
36440.35217
32097.3146
28247.81675
24847.88927
21854.1281
19224.80616
16920.76302
14905.33467
13144.98916
273908.147
271904.2772
267652.7493
261471.3911
253600.5736
244291.4098
233776.2717
222306.8829
210110.7846
197423.4305
184448.0103
171379.8908
158394.6249
145647.5838
133270.2201
121373.4803
110046.2482
99355.82544
89349.57345
80056.28593
71490.46044
63646.37938
56511.01458
50057.03264
44252.14258
39056.82374
34427.95422
30320.39793
26688.74664
23488.1977
20675.08873
18208.25513
16049.12891
14162.07388
12514.68844
11077.57453
9824.447948
8731.839562
7779.057047
6947.744863
6221.904664
5587.574943
5032.562151
4546.30859
4119.604335
3744.503989
3414.123006
3122.508353
2864.472289
2635.53753
268765.1826
266745.9718
262463.0028
256238.7228
248325.0668
238964.616
228405.628
216903.5389
204693.1636
192006.9736
179065.0536
166059.6045
153168.9132
140548.7491
128331.2652
116625.3414
105516.4366
95068.49836
85325.578
76310.04515
68027.91401
60473.02078
53622.7841
47448.37867
41912.17097
36971.89039
32582.21096
28696.47387
25268.68097
22253.33999
19607.07782
17289.42193
15262.65674
13492.48695
11947.54573
10599.77398
9424.159465
8398.493279
7503.247731
6721.276672
6037.621171
5439.201091
4914.655684
4454.170185
4049.227668
3692.456306
3377.468978
3098.759759
2851.509157
2631.572629
263640.1529
261606.7497
257294.8707
251035.5378
243080.3315
233675.7727
223085.9088
211557.7
199346.104
186680.3596
173782.1385
160855.2845
148075.7607
135599.1732
123556.8788
112055.1318
101178.1028
90983.6281
81508.29852
72771.99298
64774.96882
57503.69223
50932.91159
45028.91211
39750.3888
35052.87998
30889.38695
27212.05686
23974.14283
21130.33824
18637.94549
16457.22034
14551.49588
12887.60673
11435.54967
10168.64452
9063.046203
8097.752096
7254.379041
6516.811073
5871.062678
5304.916953
4807.804581
4370.573752
3985.28913
3645.09793
3344.064788
3077.069313
2839.644037
2627.937478
258535.4909
256489.2889
252154.0239
245864.4253
237871.1434
228433.6006
217819.5393
206281.4753
194077.4849
181448.1039
168614.0791
155779.7851
143126.1489
130808.406
118955.9816
107671.8402
97034.32512
87097.15965
77895.15859
69437.85782
61722.66832
54729.6513
48430.70444
42786.46921
37754.16935
33287.28662
29336.53676
25853.97052
22792.65325
20107.59996
17756.91535
15701.73447
13906.64723
12339.65697
10972.06221
9778.39541
8736.096842
7825.368949
7028.841039
6331.389199
5719.898624
5182.929839
4710.612606
4294.40705
3926.92553
3601.783021
3313.450247
3057.152241
2828.728261
2624.587803
253454.5675
251399.84
247045.2376
240726.3633
232702.1226
223244.3997
212612.7599
201079.5777
188897.3902
176316.5035
163562.1769
150838.5351
138326.9475
126181.8895
114530.4086
103472.2224
93083.06514
83410.30194
74480.07176
66301.33792
58862.39028
52141.72938
46104.24009
40709.37152
35911.86734
31662.24984
27911.21993
24610.47718
21713.1225
19174.82967
16954.57441
15014.53227
13320.58565
11841.93219
10551.18243
9424.075862
8439.218098
7577.901325
6823.764872
6162.617207
5582.132788
5071.595927
4621.778639
4224.684836
3873.41305
3561.999817
3285.281053
3038.792101
2818.64713
2621.489342
248404.9712
246340.7647
241967.4753
235625.1441
227581.8
218109.0831
207474.1872
195955.7887
183813.494
171295.5331
158633.0355
146034.687
133679.2529
121719.8373
110281.741
99459.98
89323.18375
79915.01032
71258.79096
63353.21607
56186.24082
49728.25198
43942.82696
38786.53712
34210.89411
30165.99095
26602.13834
23470.85231
20725.54335
18322.84927
16222.60321
14388.18073
12786.72011
11388.67295
10167.92555
9101.369417
8168.716325
7352.297086
6636.677265
6008.513523
5456.203956
4969.701066
4540.356917
4160.677258
3824.198186
3525.33361
3259.273161
3021.810174
2809.306026
2618.613873
243383.5185
241311.7738
236923.9836
230564.5704
222512.7602
213032.3438
202409.6562
190915.5424
178827.137
166389.6112
153836.7622
141377.0836
129190.7323
117428.5148
106210.9275
95629.79999
85749.79448
76608.98183
68221.71396
60586.96398
53682.85596
47479.37235
41935.7329
37005.79917
32640.02853
28787.7631
25399.15169
22425.62252
19821.27107
17543.68795
15553.79744
13816.30431
12299.48204
10975.07422
9818.147895
8806.732166
7921.601574
7146.029034
6465.459909
5867.325458
5340.685575
4876.105388
4465.461071
4101.716519
3778.802876
3491.471611
3235.19078
3006.057291
2800.625987
2615.937863
238393.0439
236315.833
231917.995
225554.6602
217496.1165
208020.6847
197419.9337
185969.8318
173943.0042
161600.0846
149170.9628
136864.1056
124858.646
113302.655
102313.7159
91980.49545
82358.86718
73482.73427
65363.49596
57991.21076
51343.34804
45384.47357
40071.3553
35356.50951
31189.17084
27517.80481
24292.63689
21465.64893
18991.84246
16829.77269
14941.49951
13293.00512
11853.75245
10596.73175
9498.135748
8537.064316
7695.302738
6956.996228
6308.407852
5737.668124
5234.462323
4789.912359
4396.368176
4047.24159
3736.795364
3460.086273
3212.854652
2991.407718
2792.540455
2613.441487
233436.4428
231355.9339
226957.6252
220591.9634
212535.5372
203079.9556
192508.9834
181115.8592
169170.343
156932.5431
144638.7578
132496.7236
120683.6085
109343.9441
98590.74112
88505.73988
79143.21382
70530.94733
62673.19895
55557.97287
49157.25068
43432.57002
38339.95274
33829.00676
29848.10749
26346.19325
23273.57904
20582.81947
18229.96361
16174.57269
14379.91858
12813.20023
11445.10051
10249.81633
9204.607435
8289.584221
7487.48209
6783.255811
6163.927517
5618.265111
5136.534123
4710.365439
4332.536519
3996.813631
3697.830464
3430.928559
3192.070633
2977.75425
2784.992688
2611.107857
228519.5075
226440.6908
222042.4772
215679.7281
207637.1193
198209.2608
187684.3703
176356.7856
164505.8318
152389.6907
140245.1194
128279.0466
116666.34
105548.2744
95033.70036
85201.12093
76097.13194
67743.94657
60143.48628
53277.04688
47114.24713
41614.82696
36731.25838
32412.7838
28607.43222
25264.42111
22334.22767
19770.17362
17529.37736
15572.49855
13864.15068
12372.66209
11069.93311
9931.268414
8934.975085
8062.129401
7296.321695
6623.291159
6030.754104
5508.060446
5046.011566
4636.738271
4273.37576
3950.03426
3661.629673
3403.784424
3172.69216
2965.017214
2777.933815
2608.92243
223645.8396
221568.1116
217173.8348
210821.039
202804.8034
193411.6466
182946.52
171698.0446
159951.3927
147969.2603
135985.3022
124205.2308
112801.0138
101911.4215
91641.05738
82059.835
73211.91347
65115.02046
57764.25084
51139.08198
45205.59808
39920.42212
35235.38931
31099.20631
27459.25654
24264.87996
21467.30613
19020.95419
16883.96973
15018.16793
13389.42688
11967.21794
10724.61433
9637.971867
8686.592001
7852.460476
7119.982872
6475.618372
5907.711571
5406.151367
4962.23332
4568.480512
4218.430984
3906.529398
3627.930534
3378.468374
3154.59208
2953.104044
2771.321391
2606.872587
218814.5149
216740.1376
212354.6106
206023.5821
198037.712
188692.6178
178295.638
167141.1149
155512.4137
143673.5407
131860.0114
120275.3344
109087.8699
98431.25935
88404.31596
79074.95104
70480.9898
62634.14227
55527.1609
49135.02362
43420.70007
38340.68318
33844.43423
29879.79465
26395.02293
23339.75001
20665.91486
18329.0887
16288.46076
14507.00166
12951.79361
11593.47949
10406.27337
9367.527439
8457.470343
7658.957837
6957.109702
6339.077163
5793.792965
5311.673467
4884.475875
4505.079013
4167.341442
3865.996906
3596.491892
3354.839403
3137.65803
2941.942852
2765.117897
2604.947162
214028.4007
211959.6208
207590.3744
201286.5859
193338.3873
184054.5047
173733.9418
162684.318
151186.1367
139503.1455
127869.8589
116487.3395
105520.6534
95099.30188
85318.87588
76239.95619
67895.01653
60293.94085
53422.89446
47255.1348
41751.92504
36866.71879
32548.91262
28746.32961
25407.65209
22482.74783
19924.49461
17689.55652
15738.24809
14034.88778
12547.65344
11248.3345
10112.20549
9117.58266
8245.578079
7479.866475
6806.273782
6212.553044
5688.16566
5223.988229
4812.182017
4446.056518
4119.735812
3828.188112
3567.114226
3332.731617
3121.791999
2931.471648
2759.290328
2603.136308
209290.8584
207232.5679
202884.3846
196611.1325
188711.9379
179495.8776
169267.478
158329.0575
146971.089
135453.5717
124008.8947
112835.1384
102094.6275
91913.05917
82377.623
73546.06554
65447.64599
58084.71248
51442.9699
45491.49963
40189.40519
35489.95726
31341.69341
27692.21311
24490.55453
21687.55166
19237.1352
17097.05438
15228.76793
13597.88049
12173.65749
10928.96079
9840.065923
8886.220885
8049.382053
7313.944396
6666.380975
6095.065228
5589.975848
5142.412858
4744.902155
4391.023965
4075.29129
3792.866567
3539.620928
3312.016031
3106.906492
2921.635194
2753.809308
2601.431278
204609.657
202561.2758
198235.7464
191999.5632
184160.3859
175018.2522
164891.7794
154079.2963
142869.5423
131524.9606
120276.3026
109317.9693
98807.35626
88864.12976
79573.08908
70987.46372
63128.80231
55999.31846
49578.71443
43834.8061
38725.99623
34203.22023
30215.07059
26709.87095
23637.20355
20948.60645
18599.10553
16547.53919
14756.56776
13192.95777
11827.08654
10632.93923
9587.727235
8671.570464
7867.222652
7159.8099
6536.376151
5985.835814
5498.584708
5066.370265
4682.123264
4339.665168
4033.73168
3759.800274
3513.864713
3292.578359
3092.932367
2912.383299
2748.648116
2599.824105
199981.8219
197945.4241
193646.9147
187458.4789
179682.2565
170627.1035
160607.3779
149929.9667
138879.1593
127716.2033
116669.2952
105929.5171
95650.1746
85947.12048
76899.97236
68554.37031
60932.65839
54028.34724
47822.14024
42278.15503
37353.21439
32998.48883
29162.51024
25793.76836
22842.38234
20260.94905
18005.74745
16036.72354
14317.75222
12816.70867
11505.11567
10357.94683
9353.303535
8472.126697
7697.927216
7016.424052
6415.297092
5884.020324
5413.357774
4995.415914
4623.446077
4291.614323
3994.83324
3728.797554
3489.703782
3274.314352
3079.79074
2903.670729
2743.782573
2598.307557
195409.9913
193387.5467
189122.5129
182986.4923
175279.0381
166319.9963
156417.563
145880.4157
134996.2473
124021.6351
113181.7304
102664.176
92619.84274
83156.43184
74348.92372
66242.10856
58849.2537
52165.42963
46165.20517
40812.88587
36064.43805
31869.74818
28177.64536
24937.53265
22100.30939
19619.68867
17452.93071
15561.12627
13909.41874
12466.73377
11205.62091
10102.06594
9135.054361
8286.320845
7540.139399
6882.761187
6302.416344
5788.975823
5333.705861
4929.061518
4568.542044
4246.58384
3958.357176
3699.685714
3466.993415
3257.129381
3067.412794
2895.456107
2739.193844
2596.875004
190896.7262
188892.6776
184665.6725
178583.9403
170955.8641
162096.364
152320.9951
141933.7822
131221.0914
120440.1173
109812.249
99520.87294
89709.66556
80483.65915
71915.49274
64040.82859
56873.1598
50401.3377
44600.88132
39432.89489
34852.36212
30809.8625
27254.64813
24136.4028
21406.85616
19020.85817
16936.94698
15117.3705
13528.47283
12140.24907
10926.28969
9863.438713
8931.527056
8113.040284
7392.852161
6757.864454
6196.874668
5700.103978
5259.161116
4866.88455
4517.067651
4204.313866
3924.085815
3672.31648
3445.615582
3240.937312
3055.73884
2887.701366
2734.859575
2595.520315
186450.0859
184463.4295
180274.7744
174252.4089
166711.1929
157957.7834
148315.1276
138085.153
127551.6537
116969.1769
106555.7664
96490.75761
86912.98041
77925.35909
69590.71316
61944.95107
54995.44685
48730.77227
43121.74637
38130.59803
33711.25102
29813.8059
26388.16536
23385.00193
20757.00014
18460.28224
16454.34739
14702.62615
13172.59746
11835.29722
10665.31146
9640.401704
8741.202215
7950.953945
7255.078565
6641.024653
6098.014958
5616.791025
5189.267492
4808.525735
4468.706246
4164.605176
3891.833416
3646.55414
3425.461986
3225.670274
3044.713909
2880.371357
2730.759199
2594.237796
182066.3561
180098.664
175951.6554
169998.3548
162544.3437
153907.0154
144400.4309
134332.3065
123983.0259
113602.9398
103406.5433
93570.01829
84226.93834
75472.73072
67369.12174
59946.87909
53210.41493
47145.10903
41721.8551
36900.39491
32634.59544
28875.39812
25573.20897
22679.27901
20147.34284
17934.64836
16001.97359
14313.94482
12839.11227
11549.59427
10420.87659
9431.548438
8562.981999
7799.058205
7125.867545
6531.403906
6005.277453
5538.541724
5123.569142
4753.677419
4423.184806
4127.200943
3861.428699
3622.248277
3406.432452
3211.247375
3034.286939
2873.433351
2726.875077
2593.022121
177747.6522
175800.3613
171700.9502
165817.97
158456.5598
149940.009
140578.5847
130676.457
120514.3333
110339.8554
100363.3531
90754.7114
81642.92339
73120.6259
65244.34634
58040.05574
51510.9018
45639.31096
40394.1341
35735.92719
31617.59888
27990.26149
24805.16784
22014.65627
19573.65961
17440.48851
15576.99677
13949.03987
12526.16497
11281.46132
10191.39322
9235.394572
8395.576267
7656.410717
7004.504532
6428.320756
5918.027961
5464.940078
5061.684734
4701.98112
4380.269252
4091.899368
3832.72617
3599.275983
3388.433782
3197.595587
3024.410167
2866.856655
2723.190625
2591.86827
173496.6661
171573.4668
167523.3911
161712.1015
154452.1421
146056.567
136844.7757
127114.4691
117143.6463
107176.6076
97419.67967
88037.7666
79156.86107
70863.56312
63209.15499
56219.02497
49890.72369
44206.4399
39133.97939
34632.04922
30654.42569
27153.24614
24079.98545
21387.88667
19033.03661
16974.96373
15176.73457
13605.39605
12231.5396
11029.13552
9975.513949
9050.864296
8237.978346
7522.049748
6890.178525
6331.250071
5835.751301
5395.497881
5003.31137
4653.151782
4339.733591
4058.514716
3805.579644
3577.522994
3371.384416
3184.650703
3015.038608
2860.612276
2719.690125
2590.771474
37934.79271
33583.69357
29741.3798
26360.41504
23393.50106
20794.94884
18522.06826
16535.36009
14799.05138
13281.27018
11953.58509
10791.01461
9771.75668
8876.711274
8089.300805
7395.240304
6782.18469
6239.528027
5758.038683
5329.823458
4948.088701
4606.925223
4301.33724
4026.874219
3779.836246
3556.882347
3355.207732
3172.352274
3006.129761
2854.674452
2716.358634
2589.727182
)
;

boundaryField
{
    front_top
    {
        type            wedge;
    }
    front_middle
    {
        type            wedge;
    }
    front_bottom
    {
        type            wedge;
    }
    back_top
    {
        type            wedge;
    }
    back_middle
    {
        type            wedge;
    }
    back_bottom
    {
        type            wedge;
    }
    axis_top
    {
        type            symmetryPlane;
    }
    axis_middle
    {
        type            symmetryPlane;
    }
    axis_bottom
    {
        type            symmetryPlane;
    }
    wall_top
    {
        type            calculated;
        value           nonuniform 0();
    }
    wall_middle
    {
        type            calculated;
        value           uniform 2530.329233;
    }
    wall_bottom
    {
        type            calculated;
        value           nonuniform 0();
    }
    inlet
    {
        type            calculated;
        value           nonuniform 0();
    }
    outlet
    {
        type            calculated;
        value           nonuniform 0();
    }
    procBoundary4to3
    {
        type            processor;
        value           nonuniform List<scalar> 
51
(
169318.971
167418.5233
163417.9761
157683.2251
150526.8505
142260.0994
133197.934
123642.7813
113865.7612
104107.6697
94570.61313
85416.38362
76763.74787
68694.48826
61259.6829
54476.57376
48344.63097
42841.40445
42841.40445
36792.65928
32585.955
28873.24155
25607.67797
22742.54918
20233.19802
18038.11471
16119.06006
14441.45291
12974.47777
11690.62382
10565.8369
9579.044473
8711.894192
7948.558241
7275.21678
6679.965981
6152.626947
5684.393111
5267.578864
4895.706518
4563.091511
4264.878969
3996.838127
3755.366007
3537.252334
3339.814811
3160.643433
2997.643477
2849.019075
2713.181923
2588.731047
)
;
    }
    procBoundary4to5
    {
        type            processor;
        value           nonuniform List<scalar> 
51
(
284244.4021
282270.8615
278084.7782
271997.8035
264238.0243
255035.8795
244635.3514
233255.8107
221131.5942
208468.062
195475.432
182334.6789
169213.9504
156264.414
143618.1006
131386.9965
119663.9572
108522.4388
98018.38069
88189.9775
79061.09446
70639.68234
62920.16063
55888.37155
49518.49261
43779.02329
38633.92529
34041.94816
29960.51107
26346.65776
23157.68794
20351.7878
17889.32718
15732.91803
13847.90893
11609.04854
11609.04854
10269.92597
9102.972626
8086.040064
7199.684463
6426.773743
5752.429596
5163.435719
4648.404534
4197.438441
3801.972655
3454.52268
3148.638423
2878.71024
2639.886324
)
;
    }
}


// ************************************************************************* //
