/*--------------------------------*- C++ -*----------------------------------*\
  =========                 |
  \\      /  F ield         | OpenFOAM: The Open Source CFD Toolbox
   \\    /   O peration     | Website:  https://openfoam.org
    \\  /    A nd           | Version:  7
     \\/     M anipulation  |
\*---------------------------------------------------------------------------*/
FoamFile
{
    version     2.0;
    format      ascii;
    class       volScalarField;
    location    "0.0024";
    object      generalizedNewtonian:nu;
}
// * * * * * * * * * * * * * * * * * * * * * * * * * * * * * * * * * * * * * //

dimensions      [0 2 -1 0 0 0 0];

internalField   nonuniform List<scalar> 
1167
(
6.567125931
6.544798246
6.582666972
6.555459312
6.540680801
6.521551185
6.497626188
6.469510575
6.437051737
6.400008625
6.358200003
6.311525452
6.259809882
6.202940127
6.140849653
6.073502614
6.000896597
5.923059211
5.840074249
5.7520067
5.658915518
5.560886499
5.457947209
5.350085315
5.237206104
5.119200061
4.995805992
4.866669321
4.731321555
4.589189088
4.439528906
4.281423124
4.113791134
3.935340479
3.744615943
6.31108893
6.289162787
6.325350042
6.298761932
6.283839555
6.264704312
6.240741495
6.212653743
6.180190198
6.143257023
6.101645838
6.055235465
6.003934331
5.947689143
5.886456377
5.820245791
5.749098146
5.673079624
5.59227668
5.506784731
5.416750843
5.322185355
5.223179021
5.119663711
5.011588706
4.898777272
4.780957641
4.657749724
4.528668007
4.393096516
4.25024391
4.099171546
3.938754622
3.767676154
3.584462725
3.387528534
3.17537727
2.946966242
2.702423307
2.444024128
2.177201492
1.910583796
1.654408413
1.417873402
1.20698731
1.024035387
0.868329707
0.7374009216
0.6280203933
0.5368422578
6.071236459
6.049611846
6.084058579
6.057830343
6.042525001
6.022986896
5.998621337
5.970107297
5.937246478
5.899897563
5.85800138
5.81142252
5.760111154
5.704051992
5.643259868
5.577785992
5.507707922
5.433137917
5.354219193
5.2710578
5.183750408
5.092425569
4.997061701
4.897664748
4.794123336
4.6862458
4.573740903
4.456201077
4.333128158
4.203851243
4.067548217
3.923254404
3.76981219
3.605911688
3.43005979
3.240708495
3.036451223
2.8164348
2.581102333
2.333165537
2.078394965
1.825352046
1.583646425
1.361464045
1.163836588
0.9924072622
0.8462480541
0.7229501557
0.6195027473
0.5328275054
5.845438048
5.824036771
5.856707779
5.830650746
5.814702877
5.794488466
5.769444138
5.740141681
5.706541355
5.668474304
5.625893626
5.57879509
5.527142929
5.470962217
5.410318429
5.345305273
5.276074795
5.202754852
5.125477612
5.044416155
4.959678467
4.87134376
4.779437785
4.683934791
4.584692134
4.481511763
4.374084738
4.261974641
4.144639275
4.021384578
3.891375938
3.753619716
3.606939561
3.450009675
3.281358632
3.099500083
2.903124239
2.69157537
2.465600342
2.2282543
1.985508321
1.745720145
1.517818226
1.309052435
1.123633711
0.962722221
0.8252506862
0.708908
0.6109010727
0.5283956042
5.631778182
5.610541671
5.641433726
5.615374071
5.598590881
5.577522447
5.551549226
5.521257562
5.486633012
5.447615108
5.404162581
5.356298254
5.304076327
5.247576369
5.1869107
5.122215119
5.053655161
4.981396183
4.905655028
4.826539377
4.744208665
4.658710077
4.570101071
4.478282915
4.38313896
4.28445706
4.181864341
4.074924637
3.963069924
3.84558189
3.721613308
3.590148089
3.450011441
3.299873591
3.138288898
2.963823121
2.775292128
2.572246813
2.355700018
2.128977464
1.898122536
1.671177181
1.456368769
1.260108824
1.085937094
0.9346549646
0.8051265767
0.6951605091
0.6021718263
0.5235481727
5.428544785
5.407444032
5.436552498
5.41033382
5.392606261
5.37057331
5.343493433
5.312078964
5.276285192
5.23614129
5.191676455
5.142945956
5.090054213
5.033133667
4.972342587
4.907859804
4.839911816
4.768678255
4.694340734
4.617099838
4.537044664
4.454286014
4.368792869
4.280506289
4.189296918
4.094880698
3.99689685
3.894891241
3.788270355
3.676303833
3.558130613
3.432722492
3.298912848
3.155379312
3.000715985
2.833555241
2.652834123
2.458291708
2.251178452
2.035013911
1.815807676
1.601215424
1.398779436
1.214169678
1.050377459
0.9079416503
0.7857079
0.6816161183
0.5932782714
0.5182836722
5.234228066
5.213213203
5.24052554
5.214069343
5.195368608
5.172265132
5.14402476
5.111388166
5.074393426
5.033065027
4.987509963
4.937870841
4.884281131
4.826922744
4.766012092
4.701758997
4.634387882
4.564119725
4.491194843
4.415736046
4.337918407
4.257762783
4.175277395
4.090392602
4.002916811
3.912571817
3.818990768
3.721696872
3.620074659
3.513395162
3.400780987
3.281205232
3.153510583
3.01639627
2.86850495
2.70854278
2.535569024
2.349498432
2.151774564
1.946032677
1.738163402
1.535393517
1.344614326
1.17085129
1.016651321
0.8823648651
0.7668562799
0.6681988057
0.5841888462
0.5125990307
5.047420295
5.026475272
5.052022149
5.025299426
5.005624596
4.981414175
4.952029492
4.918143199
4.879946366
4.837477527
4.790893
4.740378035
4.686135716
4.62839268
4.567388142
4.503378616
4.436627879
4.367375638
4.295813346
4.222160326
4.146486878
4.068877226
3.98930277
3.907663658
3.823766367
3.737322743
3.647957866
3.555167379
3.458326854
3.356702986
3.249416546
3.135457245
3.013673972
2.882799992
2.741526883
2.588642791
2.423329162
2.245653948
2.057213495
1.861690051
1.664789781
1.473290024
1.293475881
1.129816759
0.9845013922
0.8577473504
0.7484570482
0.6548450461
0.5748765814
0.5064907025
4.866919987
4.846047295
4.869884275
4.842934963
4.822269272
4.797003278
4.766505392
4.731479981
4.692105978
4.648572521
4.601050002
4.54976736
4.494976257
4.436941695
4.375947189
4.31229844
4.246235108
4.178021978
4.10789458
4.036000486
3.962471202
3.887342636
3.810575918
3.732073113
3.651628948
3.568928406
3.483584336
3.395087195
3.302814638
3.206030213
3.103857876
2.995304015
2.879235903
2.754426498
2.619620678
2.473688742
2.315929259
2.146541353
1.967231314
1.781667671
1.595327691
1.414535431
1.245020341
1.09077826
0.9537064768
0.8339331827
0.7304164093
0.641502122
0.5653187955
0.4999553758
4.691697545
4.670913991
4.693132737
4.665953898
4.644366226
4.618154171
4.586611622
4.550557538
4.510182617
4.465698105
4.417366258
4.365463346
4.310282024
4.252120109
4.191286404
4.128082166
4.062808307
3.99573143
3.927056397
3.856967735
3.785561083
3.712858186
3.638850083
3.563389564
3.486251685
3.407136183
3.325642447
3.24125236
3.153350787
3.061201253
2.963938968
2.86058665
2.750039556
2.631116131
2.502618029
2.363497327
2.2131613
2.051917956
1.881543719
1.705643992
1.529435616
1.358798519
1.198956602
1.053493355
0.9240818524
0.8107945388
0.7126516795
0.6281260326
0.5554971492
0.492990917
4.520892367
4.50023691
4.520883938
4.493522848
4.471137356
4.44408033
4.411661841
4.374701268
4.333493672
4.288269761
4.239332943
4.187001721
4.131604815
4.073473753
4.012945133
3.950359737
3.886002364
3.820135426
3.75300181
3.684739738
3.615453174
3.545177202
3.473849784
3.40133001
3.327387677
3.251726875
3.173932462
3.093482981
3.009768703
2.922058371
2.829511459
2.731167134
2.625955552
2.512739096
2.390381538
2.257916631
2.114845733
1.961567729
1.799892551
1.63332329
1.466797367
1.30577239
1.155012433
1.017750071
0.8954725158
0.7882237316
0.6950959486
0.6146819565
0.5453973897
0.4855970012
4.353769733
4.333257272
4.35240932
4.324956307
4.301922709
4.27414665
4.241037092
4.203370406
4.161509476
4.115757401
4.066433765
4.013892809
3.958492679
3.900605189
3.840593579
3.778771032
3.715460451
3.650935989
3.585401406
3.519021026
3.451884069
3.383995048
3.315299963
3.24566068
3.174828467
3.10249458
3.02824516
2.951570735
2.871866567
2.788412322
2.700390555
2.606863994
2.506801461
2.399111584
2.282721161
2.156742579
2.020763098
1.875250358
1.722015019
1.564429173
1.407140327
1.255195878
1.112958166
0.9833623671
0.8677436027
0.766130219
0.677693802
0.6011397731
0.5350091728
0.4777753549
4.189706231
4.169377606
4.187133118
4.159720588
4.136156603
4.10785169
4.07422388
4.036088284
3.993818792
3.947758345
3.89828157
3.845773894
3.790616382
3.733190655
3.673862418
3.61298882
3.550884173
3.487803404
3.423971585
3.359530465
3.294548263
3.229059691
3.162976419
3.096137859
3.028315725
2.959194446
2.888358509
2.815312622
2.739459851
2.660093572
2.576418164
2.487526882
2.392431499
2.290089077
2.179488219
2.059817378
1.93073282
1.792753139
1.647664949
1.498693027
1.350194574
1.206831121
1.07259784
0.95017315
0.8407792108
0.7444399229
0.6603997297
0.5874768652
0.5243264666
0.4695307722
4.02823767
4.008144135
4.02461996
3.997351626
3.973410598
3.94478322
3.910832265
3.872450342
3.83002647
3.783927472
3.734556496
3.682323427
3.627631768
3.570881108
3.512465496
3.452723938
3.391962755
3.330469946
3.268424883
3.205980496
3.143211044
3.08011018
3.016596552
2.952510408
2.887629196
2.821626101
2.754090296
2.684535322
2.612375151
2.536931495
2.457429222
2.372995315
2.282683617
2.185502177
2.080501408
1.966941684
1.844544068
1.713856326
1.576617634
1.435886019
1.295729508
1.16046415
1.033753134
0.9180490878
0.8144824253
0.7230868114
0.6431768368
0.5736767921
0.513347237
0.4608708883
3.869031927
3.849238354
3.864533327
3.837508662
3.813378908
3.784605687
3.750586929
3.712169302
3.669832146
3.623950422
3.574943439
3.523237784
3.469262345
3.413436826
3.356124788
3.297687613
3.238449637
3.178648804
3.118499941
3.058126257
2.997586602
2.936887681
2.875937854
2.814568107
2.752550277
2.689566366
2.625215604
2.559021337
2.490411694
2.418736693
2.343246423
2.263101632
2.17739818
2.08519698
1.985610031
1.877958566
1.762015586
1.638350478
1.508643977
1.375779903
1.243542574
1.115911524
0.9962703509
0.886873872
0.788771492
0.7020185618
0.6259966623
0.5597289544
0.5020735834
0.4518062234
3.711885064
3.692426712
3.70662267
3.679968413
3.655836914
3.62709546
3.593227115
3.555046334
3.513037335
3.467618629
3.419232029
3.368315092
3.315298406
3.260592996
3.204589543
3.147654124
3.090067665
3.032108076
2.973942696
2.915700118
2.857451005
2.799166289
2.740753379
2.682054937
2.622844236
2.562803329
2.50154252
2.438595744
2.373409505
2.30535619
2.233714606
2.157687264
2.076412294
1.989002207
1.894628841
1.79267652
1.682959128
1.566049618
1.443549252
1.318171109
1.193437102
1.073013698
0.9600173475
0.8565455839
0.7635784319
0.6811927634
0.6088384751
0.5456277736
0.4905114779
0.4423507762
3.556633716
3.537561619
3.550759423
3.524622724
3.500629855
3.472137441
3.438605979
3.400891178
3.359468901
3.314770053
3.267246878
3.217346792
3.165507799
3.112150887
3.05766365
3.002374839
2.946617279
2.890595546
2.834519516
2.778486268
2.722550145
2.666692522
2.610819478
2.554768664
2.49830951
2.441132209
2.382863204
2.323049306
2.26115856
2.196586051
2.128645607
2.056577284
1.979562158
1.896763439
1.807410111
1.710933327
1.607190255
1.496755506
1.381142249
1.26288406
1.145246039
1.031621083
0.9248818549
0.8269798761
0.7388462511
0.6605756705
0.5916866423
0.5313726109
0.4786708424
0.4325217771
3.403238291
3.384606494
3.396915019
3.371402465
3.347698985
3.319643887
3.28666712
3.249616278
3.209007012
3.165261496
3.118833908
3.070178154
3.019751527
2.967942957
2.915133754
2.861684677
2.80786073
2.753917005
2.700004211
2.64623742
2.592669545
2.539258973
2.485909992
2.432469517
2.378710238
2.324334357
2.268975302
2.212194464
2.153486003
2.092267577
2.027882494
1.959611245
1.886680058
1.808303747
1.723771902
1.632558127
1.534549482
1.430298588
1.321244134
1.209747232
1.098823602
0.9916081191
0.8907634237
0.7981050677
0.7145267548
0.6401414
0.5745319302
0.5169674867
0.4665654932
0.422339559
3.251747417
3.2336158
3.245123661
3.220320166
3.197074882
3.169602083
3.137381113
3.101212941
3.061615336
3.019034051
2.973922376
2.926731099
2.877890341
2.827801569
2.776862774
2.72537537
2.673635237
2.621847177
2.570194738
2.51875983
2.467580425
2.41662639
2.365805471
2.314957419
2.263856314
2.212213889
2.159680212
2.105833231
2.05019178
1.992200261
1.931236646
1.866615626
1.7976081
1.723478289
1.643560702
1.557380959
1.464857808
1.366515274
1.263699039
1.158609084
1.054034703
0.9528646187
0.8575759033
0.7698620601
0.6905825313
0.6198713006
0.5573708675
0.5024206409
0.4542122973
0.4118274901
3.102295947
3.084692173
3.095461253
3.071463151
3.048815019
3.022074614
2.990767093
2.955666868
2.917283106
2.876059439
2.832446877
2.786891786
2.739815383
2.691634924
2.642688392
2.593306874
2.543746461
2.494229289
2.444889597
2.39583376
2.347086793
2.298603886
2.250294374
2.202005188
2.153515642
2.104553313
2.054775591
2.003778463
1.95110314
1.896220079
1.838540238
1.777417973
1.712168636
1.642108917
1.566615963
1.485255548
1.397960954
1.30524419
1.208358201
1.10933511
1.01075978
0.915298441
0.8252473257
0.7422017346
0.6669842534
0.5997539399
0.5402049051
0.4877441289
0.4416313478
0.4010117973
2.955013021
2.937974256
2.948079681
2.924992999
2.903030929
2.877175831
2.846913789
2.813029033
2.776022027
2.736322094
2.694373435
2.650623324
2.605480014
2.559322505
2.51250466
2.465333936
2.418055055
2.370867108
2.32391716
2.277280378
2.230976719
2.184970123
2.139169689
2.093418977
2.047503332
2.001159092
1.954061063
1.905825308
1.856014384
1.804129578
1.749612862
1.691854838
1.630211232
1.564041237
1.492774294
1.416017736
1.33371454
1.246342914
1.155081847
1.061806209
0.9688950914
0.8788225394
0.7937163515
0.7150822069
0.6437098979
0.5797821203
0.5230398903
0.4729536091
0.4288457785
0.3899211964
2.81010434
2.793666135
2.803187895
2.781063107
2.759885579
2.735020667
2.705948566
2.673408141
2.637906708
2.599870302
2.559731805
2.517912705
2.474807938
2.430797579
2.38621388
2.341337276
2.296415537
2.251626126
2.207094721
2.162910417
2.11907527
2.075545485
2.032231847
1.988984734
1.945600468
1.901824008
1.857341621
1.811791473
1.764755221
1.715758851
1.664279514
1.609747131
1.551560637
1.489120014
1.421893112
1.34951996
1.271968719
1.189681177
1.103746273
1.015907569
0.9283501837
0.8433654558
0.7629328548
0.6884713022
0.6207438713
0.5599539183
0.505885639
0.4580678837
0.4158813034
0.3785866047
2.667819725
2.652018634
2.661006379
2.639882419
2.619589599
2.595779891
2.567991699
2.536910773
2.503029468
2.466763455
2.428532893
2.388742082
2.347783502
2.306010084
2.263726349
2.221223809
2.178705937
2.136353965
2.094286099
2.052561821
2.011188699
1.970132346
1.929293789
1.888524144
1.847627107
1.806359151
1.76442249
1.72147708
1.677128216
1.630925055
1.5823748
1.530940723
1.476060117
1.417183392
1.353817334
1.285629175
1.212589704
1.135127226
1.054242195
0.9715414544
0.8890447033
0.8088656536
0.7328541089
0.6623439103
0.5980767357
0.5402722911
0.4887554534
0.4431084992
0.4027658949
0.3670408906
1.985329916
1.946078518
1.907170139
1.868563252
1.830166169
1.791835149
1.753384425
1.714576226
1.675127052
1.634713804
1.592961198
1.549449358
1.50371796
1.455263281
1.403558271
1.348088226
1.288401559
1.224200581
1.155456063
1.082565329
1.006462268
0.9286195557
0.85090565
0.7752705008
0.7034439078
0.6366812711
0.5757040622
0.5207441161
0.471665671
0.4280994698
0.3895294111
0.3553184554
)
;

boundaryField
{
    front_top
    {
        type            wedge;
    }
    front_middle
    {
        type            wedge;
    }
    front_bottom
    {
        type            wedge;
    }
    back_top
    {
        type            wedge;
    }
    back_middle
    {
        type            wedge;
    }
    back_bottom
    {
        type            wedge;
    }
    axis_top
    {
        type            symmetryPlane;
    }
    axis_middle
    {
        type            symmetryPlane;
    }
    axis_bottom
    {
        type            symmetryPlane;
    }
    wall_top
    {
        type            calculated;
        value           nonuniform 0();
    }
    wall_middle
    {
        type            calculated;
        value           nonuniform List<scalar> 
23
(
0.4986062601
0.4962560965
0.4933878305
0.4900151844
0.4861460689
0.481785158
0.4769353294
0.4715985963
0.4657773082
0.4594751031
0.4526970573
0.4454511253
0.4377478256
0.429600173
0.4210246817
0.4120408936
0.4026712966
0.392941398
0.3828794854
0.3725161976
0.3618842676
0.3510182992
0.339954316
)
;
    }
    wall_bottom
    {
        type            calculated;
        value           nonuniform 0();
    }
    inlet
    {
        type            calculated;
        value           nonuniform 0();
    }
    outlet
    {
        type            calculated;
        value           nonuniform 0();
    }
    procBoundary4to3
    {
        type            processor;
        value           nonuniform List<scalar> 
51
(
2.528438987
2.513282433
2.521772346
2.501693001
2.482336212
2.459666499
2.433214063
2.403666936
2.371484529
2.337068149
2.300823239
2.26314898
2.224402013
2.184912768
2.145000495
2.104894609
2.064826547
2.024932556
2.024932556
1.880114758
1.84331382
1.806846908
1.770670462
1.734687415
1.698756388
1.662698662
1.626289468
1.589261647
1.551309752
1.512077257
1.471170211
1.428152752
1.382555024
1.333893682
1.281686679
1.225513969
1.165104845
1.100442187
1.031888785
0.9603110656
0.8870656122
0.8138711256
0.7425369494
0.6746740665
0.6114698957
0.5536244224
0.5013796097
0.4546353327
0.4130668584
0.3762032738
0.3434549425
)
;
    }
    procBoundary4to5
    {
        type            processor;
        value           nonuniform List<scalar> 
51
(
6.841740626
6.818874093
6.858325534
6.83017966
6.81521717
6.795673122
6.771298402
6.742655061
6.709609488
6.671859598
6.629309487
6.581739512
6.528974248
6.470883181
6.407368084
6.338355864
6.263810802
6.183722205
6.098118441
6.007035787
5.910551065
5.808710951
5.701516823
5.588999103
5.471052469
5.347543782
5.218292453
5.082947563
4.941068359
4.792108104
4.635375063
4.469989309
4.294911264
4.108895791
3.910507898
3.540014769
3.540014769
3.319968248
3.083277443
2.829709303
2.561074505
2.282326929
2.001979876
1.730756033
1.478908377
1.253613125
1.057998583
0.8917492914
0.7523981916
0.6365051001
0.5404338757
)
;
    }
}


// ************************************************************************* //
