/*--------------------------------*- C++ -*----------------------------------*\
  =========                 |
  \\      /  F ield         | OpenFOAM: The Open Source CFD Toolbox
   \\    /   O peration     | Website:  https://openfoam.org
    \\  /    A nd           | Version:  7
     \\/     M anipulation  |
\*---------------------------------------------------------------------------*/
FoamFile
{
    version     2.0;
    format      ascii;
    class       volVectorField;
    location    "0.0024";
    object      grad(generalizedNewtonian:nu);
}
// * * * * * * * * * * * * * * * * * * * * * * * * * * * * * * * * * * * * * //

dimensions      [0 1 -1 0 0 0 0];

internalField   nonuniform List<vector> 
1167
(
(-801.3073809 0 15824.15111)
(667.350919 0 15751.00423)
(46.65996776 0 15890.46184)
(-1020.558611 0 15892.374)
(-873.6049945 0 15899.83517)
(-1126.670525 0 15925.2887)
(-1383.398783 1.427287194e-10 15958.57752)
(-1638.800054 0 15995.23864)
(-1914.413565 -1.153833132e-10 16041.34263)
(-2211.670424 0 16091.60161)
(-2527.473328 0 16149.58669)
(-2862.549012 0 16213.06335)
(-3217.878703 0 16280.30106)
(-3591.011749 0 16349.08954)
(-3980.234664 0 16417.88258)
(-4384.069854 0 16484.24064)
(-4800.931188 -3.708350122e-11 16545.79291)
(-5228.328116 0 16599.81187)
(-5665.266323 3.494683727e-11 16644.4135)
(-6112.683473 0 16678.18302)
(-6569.997116 0 16698.97924)
(-7038.491316 0 16708.35079)
(-7521.830828 0 16704.95389)
(-8024.87053 -3.155615117e-11 16693.60447)
(-8551.797877 0 16674.52208)
(-9109.857574 0 16652.1293)
(-9709.669701 3.037393206e-11 16633.81747)
(-10361.18672 0 16625.29191)
(-11075.48308 0 16633.54239)
(-11866.68368 -2.960795146e-11 16667.92968)
(-12752.70492 0 16740.78688)
(-13752.375 0 16864.25083)
(-14887.39628 -1.457770111e-11 17053.13924)
(-16180.81738 0 17323.17352)
(-17654.32053 3.299570936e-12 17689.19904)
(-798.0391207 0 14788.13763)
(634.7623431 0 14723.29435)
(28.53467057 0 14866.81185)
(-1024.863266 0 14885.8336)
(-889.5571764 0 14911.03482)
(-1143.825141 1.687320807e-10 14961.24095)
(-1403.153964 0 15020.48457)
(-1661.417528 0 15086.25553)
(-1938.445887 0 15162.23338)
(-2234.163427 0 15246.07076)
(-2549.844468 0 15334.95864)
(-2882.939676 0 15430.11754)
(-3232.058371 -4.508096027e-11 15528.02638)
(-3596.32261 0 15626.00335)
(-3974.224913 0 15721.65031)
(-4363.515264 0 15812.12756)
(-4762.636944 0 15894.845)
(-5170.254064 7.393215428e-11 15967.04497)
(-5585.476159 0 16026.78428)
(-6006.220317 0 16072.23845)
(-6435.504803 0 16103.1361)
(-6875.217176 0 16118.85164)
(-7328.555925 0 16122.00117)
(-7800.93252 0 16114.07926)
(-8297.172656 0 16097.6525)
(-8826.596586 6.318256674e-11 16079.06243)
(-9398.535557 3.124022742e-11 16063.47921)
(-10023.36712 -3.093624429e-11 16057.52157)
(-10713.09197 -3.067490647e-11 16068.15191)
(-11483.41483 1.522620018e-11 16106.27985)
(-12351.75465 -1.513271177e-11 16183.54452)
(-13337.2039 -1.505555322e-11 16311.9499)
(-14462.03748 1.49934719e-11 16506.42143)
(-15748.63245 0 16780.89016)
(-17217.16686 0 17149.5981)
(-18877.56974 -1.488736896e-11 17619.86712)
(-20713.45744 0 18183.60885)
(-22654.83564 1.487512053e-11 18800.76663)
(-24543.28874 0 19375.65762)
(-26109.54493 0 19745.39149)
(-27011.87383 -7.465907898e-12 19704.22325)
(-26964.57949 -7.484399415e-12 19087.40764)
(-25885.21185 0 17862.2586)
(-23943.66518 7.533795915e-12 16156.14184)
(-21470.00261 0 14190.59537)
(-18807.9771 -3.799363792e-12 12185.54224)
(-16218.05711 0 10299.61139)
(-13853.10658 0 8619.112186)
(-11779.77431 0 7174.869298)
(-9999.457513 4.843586138e-13 5958.160852)
(-798.3692977 0 13886.97682)
(597.3879231 0 13828.74134)
(1.126437858 3.514273639e-10 13974.73635)
(-1042.090627 0 14007.34002)
(-922.99277 0 14048.81424)
(-1181.781731 0 14119.98618)
(-1445.911813 7.552346188e-11 14199.47022)
(-1708.078555 -6.729866614e-11 14290.71748)
(-1989.281042 0 14389.89933)
(-2286.266973 5.616480992e-11 14499.38809)
(-2599.636865 0 14614.94271)
(-2929.520999 -9.808432454e-11 14733.58862)
(-3272.93382 0 14853.5377)
(-3628.299097 0 14972.44126)
(-3993.834307 -4.226041045e-11 15086.88574)
(-4367.744637 0 15194.09896)
(-4748.125182 7.848944213e-11 15290.37039)
(-5132.777204 7.607127715e-11 15373.26764)
(-5521.831978 -3.698353283e-11 15441.37024)
(-5916.743963 -3.606489027e-11 15492.71204)
(-6316.631143 0 15528.16678)
(-6725.792417 0 15546.96122)
(-7148.711437 0 15552.58788)
(-7589.241317 0 15545.32242)
(-8055.461405 0 15531.07935)
(-8555.392146 0 15513.99865)
(-9099.037804 0 15499.75148)
(-9696.703469 1.591567046e-11 15495.07916)
(-10361.78943 1.578122087e-11 15508.35134)
(-11111.05829 -1.566674885e-11 15550.42332)
(-11961.13516 1.557055552e-11 15631.66567)
(-12931.59322 0 15764.62685)
(-14043.64614 -1.542728691e-11 15963.11062)
(-15319.49174 0 16240.7812)
(-16778.13482 -1.534169433e-11 16610.21951)
(-18424.46192 0 17075.12164)
(-20234.22452 -1.530628071e-11 17622.85246)
(-22124.66586 0 18205.68656)
(-23921.46458 -7.657599329e-12 18721.25765)
(-25348.33247 7.667401913e-12 19005.81699)
(-26082.37897 -7.681923426e-12 18870.32101)
(-25883.51044 0 18182.30202)
(-24720.2415 7.7242908e-12 16941.93064)
(-22788.36165 0 15288.33272)
(-20408.01959 0 13429.54526)
(-17891.42875 0 11559.4882)
(-15465.47452 0 9812.454842)
(-13259.31541 0 8258.887776)
(-11327.6015 0 6922.468579)
(-9669.520058 4.960237856e-13 5794.170004)
(-801.6381453 0 13106.41946)
(556.2073878 0 13053.6097)
(-33.36843097 0 13200.65846)
(-1071.723231 0 13244.70594)
(-971.6199602 -1.062170388e-10 13301.50129)
(-1235.746318 0 13387.41147)
(-1507.676627 1.554814025e-10 13484.29755)
(-1775.888457 6.92744395e-11 13594.03473)
(-2060.022968 0 13713.35554)
(-2360.502742 0 13840.39908)
(-2673.159532 0 13974.43485)
(-2998.102512 0 14111.04901)
(-3334.684051 0 14247.3006)
(-3680.067016 0 14380.01439)
(-4032.217348 0 14505.94437)
(-4388.312138 -4.183351387e-11 14621.91551)
(-4747.160212 0 14724.91785)
(-5109.204185 0 14813.35245)
(-5472.673755 0 14884.43797)
(-5838.233376 0 14938.12265)
(-6208.974362 3.629599735e-11 14973.32365)
(-6587.855516 0 14993.36718)
(-6978.880148 0 14997.26544)
(-7388.805267 0 14990.61997)
(-7824.928837 0 14976.55812)
(-8294.928932 0 14959.11042)
(-8809.874868 0 14945.67718)
(-9381.371564 1.638292726e-11 14942.73677)
(-10022.88486 0 14959.17968)
(-10750.21853 3.225339542e-11 15004.64855)
(-11580.56744 -1.602768041e-11 15089.27125)
(-12534.11762 1.594595845e-11 15225.82278)
(-13631.90366 0 15427.10125)
(-14894.63476 0 15706.5287)
(-16337.93794 0 16073.83336)
(-17962.96424 0 16530.49798)
(-19738.03888 0 17059.16288)
(-21568.15175 7.877427435e-12 17605.37477)
(-23267.70877 0 18062.08705)
(-24559.89302 0 18269.33894)
(-25144.12948 7.907451545e-12 18056.4122)
(-24823.56086 0 17320.13582)
(-23608.20071 -7.951062727e-12 16085.19982)
(-21708.94065 3.989677277e-12 14495.18458)
(-19430.43863 -4.005877837e-12 12742.66363)
(-17054.68306 4.024063164e-12 10998.22846)
(-14780.26922 0 9376.297915)
(-12717.46682 2.033073103e-12 7935.18452)
(-10912.09475 0 6693.62943)
(-9362.757374 -1.550117727e-12 5643.220138)
(-807.229943 0 12433.99207)
(512.4652206 -6.041105464e-10 12385.17208)
(-74.10286637 0 12532.59565)
(-1112.008651 0 12587.47661)
(-1031.661205 1.093818422e-10 12655.33725)
(-1303.210387 0 12751.52184)
(-1583.826302 0 12863.18089)
(-1859.686908 -1.426770302e-10 12985.0266)
(-2147.839083 0 13119.00259)
(-2449.326826 0 13259.67994)
(-2762.01101 0 13404.7971)
(-3083.307065 0 13552.36493)
(-3411.59939 0 13698.00552)
(-3745.08578 0 13838.18948)
(-4081.903592 0 13969.70836)
(-4420.132422 0 14089.46374)
(-4758.542351 -4.160052925e-11 14194.77065)
(-5094.992837 -4.031886701e-11 14283.27953)
(-5431.200717 0 14353.69753)
(-5768.724449 0 14405.444)
(-6109.651957 -3.73774593e-11 14439.55156)
(-6457.520679 -3.663023116e-11 14456.10957)
(-6818.042601 -3.59747457e-11 14458.71642)
(-7198.181521 0 14450.95231)
(-7603.212744 3.489645557e-11 14434.7312)
(-8044.46646 -3.445658434e-11 14417.31336)
(-8532.642917 1.703684395e-11 14405.1806)
(-9078.121842 1.687106687e-11 14404.10527)
(-9695.610344 0 14422.94048)
(-10400.65792 0 14470.97315)
(-11210.71125 0 14558.54474)
(-12145.65366 1.642107835e-11 14697.8652)
(-13226.03698 -1.635336634e-11 14900.78422)
(-14471.70432 0 15179.68183)
(-15895.7794 1.626263582e-11 15542.63851)
(-17494.34505 0 15988.5971)
(-19227.15006 1.622509623e-11 16495.24024)
(-20989.81122 0 17003.48668)
(-22589.37265 -8.117274757e-12 17404.04229)
(-23753.49663 -8.127665782e-12 17542.8607)
(-24207.19468 0 17268.4993)
(-23792.95891 0 16503.41643)
(-22552.41664 8.187969631e-12 15289.80195)
(-20702.37211 -4.10855223e-12 13770.17959)
(-18529.32973 0 12120.98066)
(-16287.89431 0 10492.58601)
(-14152.94041 0 8983.3448)
(-12219.79165 0 7642.282177)
(-10527.80429 0 6484.841471)
(-9075.885582 5.191869806e-13 5503.655795)
(-814.1087331 -9.106201086e-10 11857.59396)
(466.6383342 -6.223825935e-10 11812.52751)
(-120.8664829 -3.837904849e-10 11960.83661)
(-1160.523959 0 12023.93013)
(-1099.52736 0 12098.08121)
(-1380.874407 0 12202.74873)
(-1671.047234 -1.649569103e-10 12323.5819)
(-1954.091317 7.349623384e-11 12454.63079)
(-2247.783625 1.333528035e-10 12596.09901)
(-2550.267103 -6.133705525e-11 12745.40459)
(-2860.863466 1.141122926e-10 12898.16688)
(-3177.326746 -5.355847974e-11 13050.53205)
(-3497.231133 0 13199.6699)
(-3818.698189 0 13342.04197)
(-4139.960606 4.615219277e-11 13473.98594)
(-4458.35905 0 13592.41588)
(-4773.470488 0 13695.13892)
(-5086.307635 0 13780.42301)
(-5395.669804 0 13846.96679)
(-5704.520652 0 13894.82951)
(-6015.72531 0 13924.21854)
(-6333.777918 0 13937.22057)
(-6665.173993 0 13937.49257)
(-7014.242084 0 13925.90423)
(-7390.69293 -1.797597043e-11 13908.49681)
(-7805.061223 -1.77493824e-11 13891.76028)
(-8266.174364 0 13879.82754)
(-8786.114522 0 13879.81258)
(-9379.610981 0 13900.52154)
(-10062.00944 0 13950.46113)
(-10851.05304 1.700445571e-11 14040.25859)
(-11765.9471 0 14181.18682)
(-12826.64736 -1.684799348e-11 14384.6486)
(-14051.71211 0 14661.70756)
(-15451.46884 1.675451869e-11 15018.48556)
(-17017.61582 1.672876671e-11 15451.15662)
(-18702.67192 0 15933.89616)
(-20393.86768 0 16404.13821)
(-21893.83952 0 16752.02446)
(-22939.24968 0 16831.9357)
(-23281.62593 8.389355562e-12 16511.1041)
(-22797.82299 8.410134335e-12 15733.21607)
(-21552.90654 8.435624573e-12 14552.19867)
(-19763.42587 4.232820327e-12 13106.19863)
(-17696.57604 0 11556.02323)
(-15582.34743 0 10034.60136)
(-13575.76536 0 8627.169965)
(-11760.27652 -4.313949488e-12 7375.690641)
(-10170.54039 -2.169596129e-12 6293.37776)
(-8806.387265 -1.652491554e-12 5374.176244)
(-823.1505597 0 11368.14774)
(417.9212795 0 11326.50712)
(-171.7419721 -1.97788461e-10 11474.7781)
(-1213.315633 -2.904896775e-10 11542.34352)
(-1173.385524 0 11619.77649)
(-1465.338957 0 11730.88381)
(-1765.425019 1.700228365e-10 11855.26684)
(-2055.128503 0 11992.39318)
(-2353.515609 0 12137.04812)
(-2658.474178 1.264415058e-10 12288.76373)
(-2966.431711 -5.880837507e-11 12443.20227)
(-3276.433788 0 12596.2061)
(-3586.927316 1.044253337e-10 12744.38132)
(-3894.905984 -4.970082652e-11 12884.07734)
(-4199.014307 0 13012.24863)
(-4498.422046 0 13126.01053)
(-4792.186133 0 13223.63719)
(-5079.103868 4.281402756e-11 13302.59)
(-5362.167295 0 13362.95482)
(-5643.121404 0 13404.36953)
(-5925.578903 0 13428.22517)
(-6215.600344 3.889711778e-11 13437.12031)
(-6516.924197 1.910053367e-11 13432.29705)
(-6837.873949 -1.879532844e-11 13418.01667)
(-7187.670238 0 13399.91973)
(-7574.858423 0 13381.98965)
(-8009.569713 0 13369.44851)
(-8504.771868 0 13370.07134)
(-9074.430309 0 13391.93719)
(-9733.928848 0 13443.38323)
(-10501.26502 -1.752667288e-11 13534.82289)
(-11394.77246 0 13676.355)
(-12433.69795 -3.473081097e-11 13879.15208)
(-13634.8816 1.730969482e-11 14152.72005)
(-15006.04437 0 14501.67847)
(-16534.7084 -8.621258614e-12 14919.69345)
(-18166.91652 0 15377.63577)
(-19783.64742 0 15810.59792)
(-21186.60434 8.619617805e-12 16110.27171)
(-22124.24132 0 16140.75436)
(-22373.93585 -8.646997748e-12 15786.60658)
(-21841.71098 0 15008.76754)
(-20608.94344 0 13868.38408)
(-18887.53808 0 12497.04184)
(-16925.53176 4.380528478e-12 11040.88259)
(-14930.96861 0 9617.844728)
(-13042.43114 0 8302.707766)
(-11334.0464 4.446433467e-12 7131.85096)
(-9836.935462 -2.236225738e-12 6117.042506)
(-8552.239218 5.420575973e-13 5253.683318)
(-833.1106095 9.678598123e-10 10956.48181)
(368.340635 6.615042812e-10 10916.70824)
(-224.3661593 -4.079147641e-10 11062.9726)
(-1268.494062 0 11131.54592)
(-1250.664856 1.197737026e-10 11212.01934)
(-1552.899536 -1.007601633e-10 11324.88975)
(-1863.131368 0 11450.37243)
(-2160.110162 0 11587.4573)
(-2461.150721 -7.086754305e-11 11733.38036)
(-2766.758304 0 11883.23622)
(-3072.345396 0 12034.33018)
(-3376.078732 0 12183.51836)
(-3676.159308 1.076823068e-10 12326.60595)
(-3970.865492 0 12460.37691)
(-4258.560512 0 12582.03251)
(-4537.706013 0 12687.86395)
(-4808.152214 4.555280204e-11 12776.83391)
(-5071.752542 -4.414937518e-11 12847.61487)
(-5328.529137 -4.292815691e-11 12899.9324)
(-5582.52824 4.186185455e-11 12933.79359)
(-5838.337914 0 12951.64033)
(-6099.768914 2.005514952e-11 12954.13333)
(-6374.133736 -1.969626954e-11 12945.11131)
(-6668.57887 0 12928.14788)
(-6991.709307 0 12907.18411)
(-7352.448136 1.88650721e-11 12887.322)
(-7761.863244 0 12874.34206)
(-8233.186172 -1.847390846e-11 12875.65166)
(-8779.642829 0 12898.38516)
(-9416.540396 -1.818497585e-11 12951.02097)
(-10161.16759 0 13043.12237)
(-11031.72127 -1.798116872e-11 13184.28295)
(-12046.79421 0 13385.12213)
(-13221.28237 -1.784957545e-11 13653.73318)
(-14560.37583 2.671150975e-11 13993.37916)
(-16047.29812 2.667045383e-11 14395.35455)
(-17622.9761 0 14828.02848)
(-19164.1092 -8.882836995e-12 15225.40009)
(-20474.09574 -1.777691855e-11 15482.01278)
(-21315.21917 -1.779967511e-11 15472.29893)
(-21489.22717 0 15096.35949)
(-20926.26325 -4.469388982e-12 14328.77341)
(-19718.21915 4.482935321e-12 13234.40918)
(-18069.40989 0 11937.04803)
(-16209.54073 4.517154914e-12 10569.53267)
(-14327.62167 0 9237.14258)
(-12547.9418 -4.5603357e-12 8005.874799)
(-10937.12737 0 6907.849001)
(-9524.244572 0 5954.018637)
(-8311.794607 2.873724721e-12 5141.241786)
(-843.2831185 9.985250439e-10 10611.31321)
(319.098797 0 10572.40934)
(-276.054542 -2.104194752e-10 10714.82518)
(-1324.913414 0 10783.73167)
(-1329.224285 -1.235685583e-10 10865.1896)
(-1640.840119 0 10975.42474)
(-1959.552757 -9.044035187e-11 11100.25635)
(-2264.411477 8.059104934e-11 11233.24)
(-2568.983393 -1.462257564e-10 11375.26798)
(-2873.156772 6.725810817e-11 11520.88423)
(-3175.161983 6.256394997e-11 11666.38)
(-3471.930461 0 11808.15955)
(-3761.647997 -5.554703201e-11 11942.74444)
(-4042.514658 0 12067.11729)
(-4312.319481 1.012148091e-10 12178.12947)
(-4571.783994 4.866739912e-11 12273.98428)
(-4821.423812 -4.699607634e-11 12353.12067)
(-5060.632124 0 12414.03106)
(-5292.993549 0 12456.74726)
(-5521.767969 0 12482.86625)
(-5750.921875 0 12492.55151)
(-5986.952526 0 12489.59437)
(-6235.394094 -2.032031712e-11 12475.33791)
(-6503.57803 -1.999562131e-11 12453.96431)
(-6801.438105 -1.971124559e-11 12430.41266)
(-7138.094551 0 12409.1805)
(-7523.923084 0 12396.00872)
(-7971.746934 0 12397.60487)
(-8494.898828 -1.889822231e-11 12420.6807)
(-9108.841291 1.876114045e-11 12473.66567)
(-9830.175551 -1.864594771e-11 12565.47168)
(-10676.59021 0 12705.4901)
(-11665.71484 0 12903.25666)
(-12810.77082 0 13165.74438)
(-14114.5867 -9.185941737e-12 13494.82574)
(-15556.4209 0 13879.82373)
(-17073.10253 9.164737586e-12 14287.33527)
(-18539.00614 -1.832855351e-11 14651.22222)
(-19761.56469 0 14870.08211)
(-20517.70561 0 14828.63881)
(-20631.43335 9.199205707e-12 14440.59589)
(-20052.48722 0 13691.05278)
(-18878.4521 0 12645.90893)
(-17304.46927 -4.641427343e-12 11420.98267)
(-15543.21043 0 10136.91851)
(-13766.71141 -4.681430502e-12 8887.979375)
(-12087.65756 0 7733.159221)
(-10566.35506 0 6701.334884)
(-9230.238295 -2.379033858e-12 5802.78809)
(-8083.716044 5.644812285e-13 5036.044237)
(-853.0906311 -1.030671067e-09 10322.48007)
(271.7555003 0 10283.30608)
(-327.2529816 -4.343872321e-10 10422.17555)
(-1381.040091 0 10491.20039)
(-1404.99486 -2.55093327e-10 10569.24246)
(-1726.38043 0 10675.35188)
(-2053.564166 0 10795.39496)
(-2363.102179 0 10923.4937)
(-2671.246427 0 11057.2584)
(-2975.182247 0 11194.69229)
(-3272.238762 6.45781029e-11 11330.94297)
(-3560.667439 0 11462.48572)
(-3838.938991 5.73352857e-11 11586.13278)
(-4105.607754 0 11698.95953)
(-4359.626864 0 11798.48016)
(-4600.282198 -5.023417335e-11 11882.79799)
(-4827.859845 -4.850904481e-11 11949.92631)
(-5044.973732 0 11999.97075)
(-5253.874493 2.285703403e-11 12032.80873)
(-5458.16558 0 12049.3165)
(-5663.767647 -2.179232921e-11 12051.82464)
(-5874.712742 2.135666982e-11 12041.55514)
(-6098.101213 0 12021.58891)
(-6343.362691 0 11996.71158)
(-6618.009287 0 11970.91712)
(-6931.078343 2.008935971e-11 11947.74616)
(-7294.078856 0 11933.42265)
(-7719.132017 0 11934.36906)
(-8219.389397 0 11957.14511)
(-8810.311068 0 12009.935)
(-9507.936173 -3.849245236e-11 12100.80212)
(-10329.31941 0 12238.86679)
(-11290.78046 -1.90691366e-11 12432.57681)
(-12404.07507 -9.503980203e-12 12688.06648)
(-13669.88354 -9.481669401e-12 13005.87013)
(-15063.98408 9.467095957e-12 13373.56169)
(-16520.16699 0 13756.75286)
(-17912.19629 0 14089.9036)
(-19053.34418 9.465294168e-12 14276.43467)
(-19735.44427 0 14210.96352)
(-19802.37059 4.747680187e-12 13818.95027)
(-19219.42046 -4.759439184e-12 13093.23731)
(-18086.81289 -4.773864629e-12 12099.26743)
(-16588.83091 0 10944.52551)
(-14921.86723 9.620609971e-12 9738.558547)
(-13243.88314 0 8566.547992)
(-11657.86775 0 7481.715206)
(-10218.80544 2.44133798e-12 6510.143345)
(-8953.043627 0 5662.040714)
(-7866.906057 5.754617338e-13 4937.373818)
(-861.5913417 0 10081.17289)
(225.3744151 3.637415739e-10 10041.77307)
(-377.4246694 0 10177.5351)
(-1433.773878 0 10243.72825)
(-1476.602221 1.317200095e-10 10315.84323)
(-1806.415203 -1.108100474e-10 10417.13505)
(-2141.761967 0 10528.80475)
(-2455.823601 0 10649.22943)
(-2764.639543 0 10774.14865)
(-3067.000521 -7.169492588e-11 10900.13196)
(-3359.351535 0 11024.345)
(-3639.930945 0 11143.47325)
(-3907.310831 0 11254.56248)
(-4160.165148 0 11354.37312)
(-4397.064296 0 11440.17617)
(-4618.793173 -5.187784285e-11 11510.9816)
(-4827.120102 0 11565.83352)
(-5022.648093 0 11604.00995)
(-5209.309995 -2.360491964e-11 11626.0164)
(-5391.791222 -2.301859154e-11 11633.37391)
(-5573.832723 0 11627.14572)
(-5762.02009 -2.205546319e-11 11609.79179)
(-5963.81248 -2.16607883e-11 11585.22105)
(-6186.920846 0 11556.14125)
(-6439.017761 0 11526.54871)
(-6729.695958 0 11501.01083)
(-7070.968703 0 11485.5164)
(-7474.268337 2.031650812e-11 11485.65059)
(-7952.540194 2.014488197e-11 11507.97216)
(-8520.534161 -1.999875718e-11 11560.05352)
(-9193.925591 1.987596561e-11 11649.44056)
(-9989.361859 -1.977462216e-11 11784.83492)
(-10921.88697 9.846540797e-12 11973.77767)
(-12001.79536 0 12221.66009)
(-13227.47273 0 12527.68028)
(-14572.15074 0 12878.1613)
(-15967.4803 1.953861624e-11 13238.15929)
(-17287.91434 0 13543.38738)
(-18354.09553 0 13702.69324)
(-18972.46829 0 13619.925)
(-19004.06056 0 13230.39123)
(-18426.4239 -4.915168753e-12 12532.91518)
(-17339.90363 4.930066194e-12 11590.88733)
(-15917.70234 0 10503.46209)
(-14341.18775 0 9370.646931)
(-12755.38338 4.990250593e-12 8269.695353)
(-11255.33417 0 7248.943913)
(-9892.136385 -5.04243784e-12 6332.551978)
(-8691.16016 0 5530.689446)
(-7660.422173 -1.965574437e-12 4844.576104)
(-869.740863 0 9880.339527)
(180.4846386 0 9840.631458)
(-424.3358386 -2.317615538e-10 9971.632544)
(-1480.968382 -1.701927876e-10 10032.26374)
(-1542.323306 0 10098.52492)
(-1879.431654 0 10192.13835)
(-2220.797995 -9.961338635e-11 10294.96953)
(-2539.544692 8.876510502e-11 10404.16782)
(-2848.394341 8.052845023e-11 10517.7405)
(-3147.644946 -7.407985233e-11 10631.65744)
(-3434.629951 6.890958299e-11 10742.68528)
(-3707.031051 0 10847.648)
(-3963.078323 0 10943.79598)
(-4201.399356 0 11028.46072)
(-4422.893445 -2.787016448e-11 11100.07366)
(-4627.78733 -2.680177768e-11 11157.37098)
(-4816.452986 0 11198.76537)
(-4992.361377 0 11224.6368)
(-5158.870186 2.439013553e-11 11235.86112)
(-5319.879674 0 11233.00469)
(-5481.418963 0 11218.66149)
(-5649.269919 0 11194.60649)
(-5829.680164 2.238133267e-11 11163.79118)
(-6031.594139 0 11130.16999)
(-6263.484178 -2.171048513e-11 11097.28307)
(-6534.265342 0 11069.83788)
(-6855.032025 0 11053.11534)
(-7237.192278 2.099233525e-11 11052.16128)
(-7693.875418 0 11073.52492)
(-8239.133058 -2.066401431e-11 11124.23955)
(-8888.171633 -1.026856907e-11 11211.70961)
(-9656.965245 0 11343.89266)
(-10559.45251 0 11527.55904)
(-11604.54834 1.014144551e-11 11767.26926)
(-12788.54289 1.01176382e-11 12061.1633)
(-14082.5324 1.010208731e-11 12394.57486)
(-15417.04322 0 12732.55531)
(-16668.70356 0 13012.81401)
(-17666.3052 -1.010016464e-11 13149.72324)
(-18230.28587 1.0113094e-11 13055.46235)
(-18237.12021 0 12673.84363)
(-17672.88134 0 12007.70825)
(-16635.32666 0 11117.24769)
(-15287.36436 0 10094.19454)
(-13797.11954 0 9029.849376)
(-12297.77326 0 7994.554037)
(-10877.42723 0 7032.761837)
(-9584.355806 0 6167.088439)
(-8443.171 0 5407.691426)
(-7463.473704 0 4757.049009)
(-876.4029376 0 9711.916955)
(138.5532337 0 9670.75033)
(-465.8537324 0 9795.630388)
(-1522.264169 1.759497724e-10 9850.178984)
(-1600.639331 0 9910.263559)
(-1943.606352 0 9993.555706)
(-2289.334819 -1.029829344e-10 10086.91399)
(-2610.454458 0 10183.77005)
(-2919.670096 -8.325242626e-11 10283.60771)
(-3215.734135 0 10383.51866)
(-3496.098448 0 10479.75322)
(-3759.324049 0 10569.48278)
(-4004.25558 0 10650.18756)
(-4230.149046 0 10719.93488)
(-4436.563329 0 10776.76245)
(-4624.133518 0 10819.10438)
(-4795.515338 -2.675682781e-11 10847.25063)
(-4953.058722 2.593248222e-11 10860.67743)
(-5100.370349 -2.521516252e-11 10860.47572)
(-5243.065357 0 10848.15196)
(-5385.127841 0 10825.10647)
(-5533.064096 0 10793.60992)
(-5695.398817 -2.313840923e-11 10757.39439)
(-5878.923974 -2.27686836e-11 10719.82938)
(-6091.607965 0 10683.55655)
(-6343.433059 0 10653.5931)
(-6644.700984 -2.191567799e-11 10634.84401)
(-7006.531867 0 10632.33552)
(-7442.206022 0 10652.48167)
(-7965.241436 2.136300062e-11 10701.5756)
(-8590.138361 0 10786.78149)
(-9331.888947 2.112357578e-11 10915.291)
(-10203.50372 0 11093.29874)
(-11212.74434 2.09689853e-11 11324.6153)
(-12353.98529 -1.045988e-11 11606.42613)
(-13596.99472 1.044380306e-11 11923.48269)
(-14872.03347 0 12241.14266)
(-16058.54027 0 12499.44873)
(-16993.77034 -1.044181538e-11 12618.22498)
(-17511.3226 0 12517.3516)
(-17501.25379 5.237491706e-12 12147.89389)
(-16956.24934 -1.050092797e-11 11514.88783)
(-15970.18565 0 10675.29001)
(-14694.78834 0 9713.534153)
(-13286.13832 0 8713.130339)
(-11867.98345 0 7738.71112)
(-10521.93831 2.678652281e-12 6831.388008)
(-9293.721066 0 6012.361527)
(-8207.871314 -2.708966552e-12 5292.108746)
(-7275.331109 6.071277429e-13 4674.190977)
(-881.0450089 0 9567.216161)
(100.6483339 0 9523.791121)
(-502.2028481 0 9642.415044)
(-1556.950595 1.820039908e-10 9691.690926)
(-1649.60446 1.455469804e-10 9743.172294)
(-1997.252185 -1.224420485e-10 9816.287827)
(-2346.655435 -2.130529049e-10 9897.476882)
(-2668.028741 0 9982.343596)
(-2975.772082 0 10068.09143)
(-3268.086979 7.922091745e-11 10152.59407)
(-3542.265027 0 10233.14045)
(-3796.940302 0 10307.24365)
(-4031.068648 0 10372.23891)
(-4243.561687 -3.113965641e-11 10425.72058)
(-4435.277324 0 10466.88896)
(-4608.145535 5.732358677e-11 10495.10914)
(-4762.879606 -2.767749791e-11 10509.40008)
(-4903.417032 5.364957496e-11 10510.49748)
(-5034.180515 0 10499.31155)
(-5158.872642 2.543490936e-11 10477.02574)
(-5283.719253 0 10445.5043)
(-5415.269615 2.437067913e-11 10407.60057)
(-5560.484248 2.393457394e-11 10365.85451)
(-5726.279041 0 10323.25541)
(-5921.289954 0 10283.45057)
(-6155.682599 2.292451703e-11 10251.06975)
(-6439.000449 0 10230.4085)
(-6782.202195 0 10226.55779)
(-7197.756044 1.112976969e-11 10245.40832)
(-7698.826893 1.104903783e-11 10292.64166)
(-8299.708673 0 10375.18717)
(-9014.357499 -2.185041249e-11 10499.65214)
(-9854.845905 1.088015622e-11 10671.77524)
(-10827.69645 0 10894.58407)
(-11925.66203 0 11164.40443)
(-13117.38134 0 11465.74843)
(-14333.88136 0 11764.64773)
(-15458.68433 0 12003.81865)
(-16337.80503 0 12108.33927)
(-16817.11735 5.40746612e-12 12005.15884)
(-16797.128 0 11650.88237)
(-16275.15018 0 11052.14197)
(-15341.38378 -5.447587228e-12 10262.1589)
(-14136.66221 5.466971105e-12 9358.529319)
(-12805.51818 -5.489170306e-12 8418.023241)
(-11463.41913 0 7500.12056)
(-10186.63852 0 6643.097543)
(-9018.691352 2.785877423e-12 5867.162674)
(-7984.209395 0 5183.11323)
(-7095.337742 2.02700557e-12 4595.463429)
(-882.9543808 0 9438.47562)
(66.65972254 -4.1599622e-10 9393.191659)
(-533.7387852 0 9506.492475)
(-1583.604758 0 9549.532249)
(-1688.730088 0 9591.147916)
(-2038.644086 0 9654.548089)
(-2390.724305 -1.102560578e-10 9722.575408)
(-2712.414376 4.912437423e-11 9793.772512)
(-3016.836103 0 9865.358478)
(-3304.377828 8.199452674e-11 9934.790171)
(-3571.936127 0 9999.416014)
(-3817.701917 3.579811733e-11 10056.99179)
(-4040.407949 3.385876235e-11 10105.32868)
(-4240.983418 3.222988935e-11 10143.14593)
(-4420.098391 0 10169.63965)
(-4577.899978 -2.966527354e-11 10183.04479)
(-4717.945763 0 10184.05128)
(-4843.42807 2.776395219e-11 10173.0373)
(-4958.183773 2.699597187e-11 10150.78249)
(-5067.998955 0 10119.22838)
(-5177.457703 0 10079.63569)
(-5293.040502 -2.522392269e-11 10034.64824)
(-5422.770926 0 9987.38132)
(-5573.50358 -2.437671167e-11 9940.517235)
(-5753.204089 0 9897.624713)
(-5971.467969 0 9862.785772)
(-6237.891849 0 9840.106455)
(-6563.349135 0 9834.576063)
(-6959.512813 0 9851.531218)
(-7439.09246 0 9896.608826)
(-8016.161491 1.136566061e-11 9976.345078)
(-8703.838319 2.261541885e-11 10096.69845)
(-9513.125628 1.126108222e-11 10262.8577)
(-10449.27203 0 10477.16016)
(-11504.0742 0 10735.41983)
(-12645.74423 -1.118139192e-11 11022.05998)
(-13805.97146 0 11303.97394)
(-14872.47175 -1.117219264e-11 11526.51428)
(-15700.37742 0 11620.13696)
(-16147.31971 0 11517.95568)
(-16123.62083 0 11181.22232)
(-15628.33449 -1.124255117e-11 10617.19948)
(-14746.48067 5.638313139e-12 9875.2001)
(-13610.05978 0 9026.69212)
(-12352.56526 0 8142.217105)
(-11081.7674 0 7276.81592)
(-9869.687927 2.867830894e-12 6466.391135)
(-8757.922354 0 5730.414246)
(-7771.273163 0 5079.947848)
(-6922.939136 6.268760338e-13 4520.357202)
(-883.3305508 1.260682781e-09 9320.66002)
(35.41145273 0 9273.891056)
(-559.7006285 0 9381.635982)
(-1601.070129 -1.950888957e-10 9416.710692)
(-1717.500174 0 9449.647891)
(-2068.403402 0 9501.836729)
(-2419.819128 -1.141850124e-10 9558.203268)
(-2740.895481 -1.017498246e-10 9614.816408)
(-3042.420047 0 9671.533532)
(-3324.164053 0 9725.479013)
(-3583.982445 7.8989801e-11 9774.200159)
(-3820.712789 0 9815.69731)
(-4033.761532 3.506531314e-11 9848.411883)
(-4223.050267 -3.337839572e-11 9871.137406)
(-4388.75928 0 9882.068678)
(-4533.770867 3.072239015e-11 9881.794503)
(-4660.207917 0 9869.68801)
(-4771.665212 0 9846.878799)
(-4873.347403 0 9814.332906)
(-4968.747712 0 9773.411751)
(-5064.317688 0 9725.922688)
(-5167.179377 0 9674.829025)
(-5283.457796 -2.565531441e-11 9622.412034)
(-5420.000425 0 9571.200419)
(-5585.401599 0 9524.906348)
(-5788.936031 0 9487.523709)
(-6039.823003 0 9462.835857)
(-6348.682872 0 9455.624739)
(-6726.704878 0 9470.792866)
(-7186.152867 2.368678359e-11 9513.927398)
(-7740.155692 0 9590.830882)
(-8401.116566 0 9706.96867)
(-9179.405333 -1.166236882e-11 9867.130675)
(-10079.0658 0 10073.07629)
(-11090.71341 0 10320.07928)
(-12182.66986 0 10592.86364)
(-13288.52339 -1.157089349e-11 10859.32266)
(-14301.02248 1.157031166e-11 11067.72877)
(-15083.54013 -5.788817488e-12 11153.48021)
(-15503.32869 0 11054.86483)
(-15479.54574 -5.80720548e-12 10737.25816)
(-15013.47563 0 10207.85677)
(-14183.49155 5.839233397e-12 9512.144378)
(-13112.36149 2.930005393e-12 8715.685075)
(-11924.7033 0 7883.592581)
(-10720.96949 0 7067.123346)
(-9569.462754 0 6299.991105)
(-8510.250867 0 5601.169651)
(-7568.198443 -1.501818622e-12 4981.890586)
(-6757.567688 6.362553071e-13 4448.347241)
(-881.3618383 0 9208.890572)
(8.179317996 -4.46450837e-10 9159.996591)
(-578.5310233 2.753026593e-10 9261.157718)
(-1609.911803 0 9288.661456)
(-1735.358688 0 9313.676496)
(-2085.796711 1.360065552e-10 9354.029397)
(-2435.716036 0 9398.463796)
(-2753.420531 0 9442.172575)
(-3050.700751 0 9484.030766)
(-3326.673094 0 9522.591244)
(-3579.188363 -4.092782237e-11 9555.950251)
(-3807.12555 -3.841885717e-11 9582.187155)
(-4009.821196 0 9599.149174)
(-4187.572068 0 9606.330044)
(-4342.425788 0 9603.315485)
(-4475.034318 0 9589.390255)
(-4589.233627 -3.074369615e-11 9565.014355)
(-4688.842899 2.979651995e-11 9531.097907)
(-4777.643892 0 9488.565237)
(-4861.613244 0 9439.099564)
(-4945.555907 0 9384.478455)
(-5036.088575 0 9327.10775)
(-5140.113051 0 9269.527472)
(-5264.717053 0 9214.439293)
(-5418.023066 0 9165.35587)
(-5608.482328 2.546416561e-11 9125.619424)
(-5845.176843 0 9099.05687)
(-6138.538737 0 9090.227493)
(-6499.346558 0 9103.611036)
(-6939.221466 -1.227308416e-11 9144.481848)
(-7470.553306 1.219772791e-11 9218.250361)
(-8105.290968 0 9330.148691)
(-8852.982798 -1.208549339e-11 9484.433118)
(-9716.616714 0 9682.28379)
(-10686.49139 -1.201844165e-11 9918.67671)
(-11730.7769 0 10178.74064)
(-12784.24271 0 10431.1143)
(-13745.52489 0 10627.55139)
(-14486.99204 0 10707.75035)
(-14885.01851 0 10614.86386)
(-14864.81076 6.017897772e-12 10317.42334)
(-14428.68951 6.032802876e-12 9822.135393)
(-13649.79236 0 9170.680464)
(-12641.36796 0 8423.442573)
(-11519.78363 9.145916186e-12 7640.407292)
(-10379.23545 0 6869.577049)
(-9284.486925 0 6142.741375)
(-8274.515 0 5478.493986)
(-7374.186215 1.556306389e-12 4888.255941)
(-6598.70006 2.21130552e-12 4378.945304)
(-876.7777896 0 9096.837991)
(-14.4275372 0 9045.466553)
(-591.1009269 0 9140.248923)
(-1610.480189 0 9161.814136)
(-1742.433581 0 9177.732549)
(-2089.92841 1.410321928e-10 9207.994968)
(-2437.80803 0 9239.788518)
(-2751.357195 0 9270.59675)