/*--------------------------------*- C++ -*----------------------------------*\
  =========                 |
  \\      /  F ield         | OpenFOAM: The Open Source CFD Toolbox
   \\    /   O peration     | Website:  https://openfoam.org
    \\  /    A nd           | Version:  7
     \\/     M anipulation  |
\*---------------------------------------------------------------------------*/
FoamFile
{
    version     2.0;
    format      ascii;
    class       surfaceScalarField;
    location    "0.0024";
    object      phi;
}
// * * * * * * * * * * * * * * * * * * * * * * * * * * * * * * * * * * * * * //

dimensions      [1 0 -1 0 0 0 0];

internalField   nonuniform List<scalar> 
2260
(
-6.188519829e-13
6.481496683e-11
-2.42134657e-12
1.8950356e-10
-5.313180094e-12
3.067555115e-10
-9.189375793e-12
4.165870684e-10
-1.393689247e-11
5.190859107e-10
-1.943806351e-11
6.143753214e-10
-2.557317581e-11
7.026082456e-10
-3.222312184e-11
7.83967235e-10
-3.927103136e-11
8.586576682e-10
-4.660431186e-11
9.26902944e-10
-5.411563628e-11
9.88939663e-10
-6.170398115e-11
1.045013798e-09
-6.927533077e-11
1.095376782e-09
-7.674308994e-11
1.140282291e-09
-8.402814745e-11
1.179983151e-09
-9.105895385e-11
1.214729002e-09
-9.777135138e-11
1.244764064e-09
-1.041082695e-10
1.270325432e-09
-1.10019424e-10
1.291641833e-09
-1.154608981e-10
1.308932388e-09
-1.203948627e-10
1.322406185e-09
-1.247889447e-10
1.332261275e-09
-1.286161483e-10
1.338684851e-09
-1.318541753e-10
1.34185252e-09
-1.344853836e-10
1.341928464e-09
-1.364962998e-10
1.339065142e-09
-1.378771964e-10
1.333402717e-09
-1.386219796e-10
1.325068734e-09
-1.38727806e-10
1.31417739e-09
-1.381945379e-10
1.300828189e-09
-1.37024292e-10
1.285104109e-09
-1.352208366e-10
1.267069064e-09
-1.327887095e-10
1.246764235e-09
-1.297321328e-10
1.224202571e-09
1.199360949e-09
-6.217406112e-13
6.543670744e-11
-2.432755886e-12
1.913145752e-10
-5.338914187e-12
3.096616697e-10
-9.235587072e-12
4.204837412e-10
-1.401020484e-11
5.238605285e-10
-1.954553447e-11
6.199106512e-10
-2.57224534e-11
7.087851646e-10
-3.242216999e-11
7.906669516e-10
-3.952817672e-11
8.65763675e-10
-4.692777807e-11
9.343025452e-10
-5.45135187e-11
9.965254035e-10
-6.218394917e-11
1.052684228e-09
-6.984432332e-11
1.103037156e-09
-7.740698617e-11
1.147844954e-09
-8.479156889e-11
1.187367733e-09
-9.192493789e-11
1.22186237e-09
-9.874117566e-11
1.251580302e-09
-1.051812825e-10
1.276765539e-09
-1.111929322e-10
1.297653483e-09
-1.167301e-10
1.314469556e-09
-1.217526625e-10
1.327428747e-09
-1.262262705e-10
1.336734884e-09
-1.301216936e-10
1.342580275e-09
-1.334148106e-10
1.345145636e-09
-1.36086146e-10
1.344599799e-09
-1.381205104e-10
1.341099507e-09
-1.395068281e-10
1.334789035e-09
-1.402377255e-10
1.325799631e-09
-1.403092549e-10
1.31424892e-09
-1.397203247e-10
1.300239259e-09
-1.384721675e-10
1.283855952e-09
-1.365677885e-10
1.265164686e-09
-1.340109974e-10
1.244207444e-09
-1.308052858e-10
1.220996859e-09
-1.269520895e-10
1.195507752e-09
-1.224486822e-10
1.167665105e-09
-1.172851196e-10
1.137326261e-09
-1.114403924e-10
1.104255065e-09
-1.048785524e-10
1.06808616e-09
-9.754594245e-11
1.028277498e-09
-8.937326849e-11
9.840552984e-10
-8.028720082e-11
9.343596281e-10
-7.023718172e-11
8.778029733e-10
-5.923892529e-11
8.126502173e-10
-4.743402854e-11
7.368183999e-10
-3.516262959e-11
6.478872615e-10
-2.304667367e-11
5.431105677e-10
-1.208148503e-11
4.194405043e-10
-3.729967937e-12
2.736110889e-10
1.02301802e-10
-6.195037771e-13
6.605621122e-11
-2.424148683e-12
1.931192201e-10
-5.320856444e-12
3.125583775e-10
-9.206340999e-12
4.243692258e-10
-1.396956151e-11
5.286237491e-10
-1.949495122e-11
6.25436041e-10
-2.566512653e-11
7.149553401e-10
-3.236272977e-11
7.973645548e-10
-3.947269422e-11
8.728736393e-10
-4.6883424e-11
9.417132749e-10
-5.448813537e-11
1.004130115e-09
-6.218581334e-11
1.060381906e-09
-6.988173438e-11
1.110733077e-09
-7.748783944e-11
1.155451059e-09
-8.492300762e-11
1.194802901e-09
-9.211302397e-11
1.229052387e-09
-9.899056109e-11
1.258457839e-09
-1.05494985e-10
1.283269963e-09
-1.115720464e-10
1.303730544e-09
-1.171738075e-10
1.320071317e-09
-1.222581072e-10
1.332513047e-09
-1.267884968e-10
1.341265273e-09
-1.307338169e-10
1.346525595e-09
-1.340680539e-10
1.348479874e-09
-1.367699456e-10
1.347301691e-09
-1.388227464e-10
1.343152307e-09
-1.402139823e-10
1.336180271e-09
-1.409350594e-10
1.326520708e-09
-1.409808843e-10
1.314294745e-09
-1.403493574e-10
1.299607733e-09
-1.390409623e-10
1.282547557e-09
-1.370579738e-10
1.263181697e-09
-1.344034516e-10
1.241552922e-09
-1.3108018e-10
1.217673588e-09
-1.270889236e-10
1.191516496e-09
-1.224263543e-10
1.163002536e-09
-1.170822032e-10
1.13198211e-09
-1.110359411e-10
1.098208803e-09
-1.042536986e-10
1.061303918e-09
-9.668720409e-11
1.020711004e-09
-8.827826679e-11
9.756463611e-10
-7.897294495e-11
9.250543062e-10
-6.874909622e-11
8.675791245e-10
-5.765778493e-11
8.01558906e-10
-4.587662002e-11
7.250372349e-10
-3.377199071e-11
6.357826321e-10
-2.196794942e-11
5.313065263e-10
-1.141997488e-11
4.088925297e-10
-3.489102874e-12
2.656802169e-10
9.881269911e-11
-6.12586179e-13
6.666879743e-11
-2.39725892e-12
1.949038929e-10
-5.262788715e-12
3.154239073e-10
-9.108139859e-12
4.282145769e-10
-1.382481331e-11
5.333404226e-10
-1.930005143e-11
6.309112789e-10
-2.541911466e-11
7.210744031e-10
-3.206731992e-11
8.040127601e-10
-3.913185118e-11
8.799381706e-10
-4.650323073e-11
9.490846546e-10
-5.407629249e-11
1.011703177e-09
-6.175110081e-11
1.068056715e-09
-6.943360415e-11
1.11841558e-09
-7.703597959e-11
1.163053434e-09
-8.447683196e-11
1.202243754e-09
-9.16812838e-11
1.236256839e-09
-9.858090642e-11
1.265357462e-09
-1.051136168e-10
1.289802674e-09
-1.11223647e-10
1.309840574e-09
-1.168611408e-10
1.325708811e-09
-1.21982192e-10
1.337634098e-09
-1.265482884e-10
1.345831369e-09
-1.305265348e-10
1.350503841e-09
-1.338890043e-10
1.351842343e-09
-1.36612777e-10
1.350025464e-09
-1.386796566e-10
1.345219187e-09
-1.40075705e-10
1.337576319e-09
-1.407910927e-10
1.327236096e-09
-1.408196387e-10
1.314323291e-09
-1.401583383e-10
1.298946432e-09
-1.388068213e-10
1.28119604e-09
-1.367665834e-10
1.261141459e-09
-1.340400424e-10
1.23882638e-09
-1.306292982e-10
1.214262844e-09
-1.265345183e-10
1.187421716e-09
-1.21751982e-10
1.15822e-09
-1.162713603e-10
1.126501488e-09
-1.100731236e-10
1.092010566e-09
-1.031262663e-10
1.054357061e-09
-9.53888898e-11
1.012973627e-09
-8.681456152e-11
9.670720328e-10
-7.736821682e-11
9.156079616e-10
-6.705362974e-11
8.572645373e-10
-5.595195368e-11
7.904572299e-10
-4.426891141e-11
7.133541925e-10
-3.238787895e-11
6.239015997e-10
-2.092695961e-11
5.198456071e-10
-1.079872677e-11
3.987642969e-10
-3.268897618e-12
2.581503878e-10
9.554380149e-11
-6.01486192e-13
6.727028362e-11
-2.354030675e-12
1.966564374e-10
-5.168953413e-12
3.182388301e-10
-8.948277759e-12
4.319939013e-10
-1.358700773e-11
5.379791525e-10
-1.897607036e-11
6.363003416e-10
-2.500430236e-11
7.271026352e-10
-3.156064427e-11
8.105691021e-10
-3.853545593e-11
8.869129825e-10
-4.582204569e-11
9.563712444e-10
-5.331766658e-11
1.019198798e-09
-6.092421434e-11
1.075663263e-09
-6.854890313e-11
1.126040269e-09
-7.610457908e-11
1.170609111e-09
-8.351003551e-11
1.20964921e-09
-9.069005409e-11
1.243436857e-09
-9.757549685e-11
1.272242905e-09
-1.041032077e-10
1.296330384e-09
-1.10215937e-10
1.315953304e-09
-1.158623195e-10
1.331355194e-09
-1.209966102e-10
1.342768389e-09
-1.255787088e-10
1.350413468e-09
-1.295738105e-10
1.354498943e-09
-1.329523467e-10
1.355220879e-09
-1.356898748e-10
1.352762992e-09
-1.377666353e-10
1.347295948e-09
-1.391673001e-10
1.338976984e-09
-1.398809264e-10
1.327949723e-09
-1.399002279e-10
1.314342592e-09
-1.392212698e-10
1.298267474e-09
-1.378428467e-10
1.279817617e-09
-1.357655775e-10
1.25906419e-09
-1.329912599e-10
1.236052063e-09
-1.295213271e-10
1.210792911e-09
-1.253555374e-10
1.183255926e-09
-1.204898453e-10
1.153354308e-09
-1.149142776e-10
1.12092592e-09
-1.086107031e-10
1.085706992e-09
-1.015516134e-10
1.047297971e-09
-9.370209079e-11
1.005124105e-09
-8.502780651e-11
9.583977486e-10
-7.551165806e-11
9.060918131e-10
-6.518059589e-11
8.469334753e-10
-5.414087958e-11
7.794175138e-10
-4.261957381e-11
7.018328869e-10
-3.100958941e-11
6.122916153e-10
-1.991711778e-11
5.087531354e-10
-1.021015803e-11
3.890573371e-10
-3.065234898e-12
2.510054647e-10
9.24785666e-11
-5.867435325e-13
6.785702715e-11
-2.296566932e-12
1.983662608e-10
-5.043942925e-12
3.209862061e-10
-8.734684015e-12
4.356846424e-10
-1.326806392e-11
5.425125324e-10
-1.85393847e-11
6.415716625e-10
-2.444199781e-11
7.330052484e-10
-3.086906922e-11
8.169961733e-10
-3.771501027e-11
8.937589235e-10
-4.487662769e-11
9.635328618e-10
-5.225408523e-11
1.026576255e-09
-5.975176435e-11
1.083160942e-09
-6.727862689e-11
1.133567132e-09
-7.47487033e-11
1.178079187e-09
-8.208135605e-11
1.216981863e-09
-8.920143407e-11
1.250556935e-09
-9.603933263e-11
1.279080803e-09
-1.025310838e-10
1.302822135e-09
-1.086183429e-10
1.322040563e-09
-1.142483382e-10
1.336985189e-09
-1.193738402e-10
1.347893891e-09
-1.239531395e-10
1.354992768e-09
-1.279497794e-10
1.358495583e-09
-1.313327692e-10
1.358603869e-09
-1.340760317e-10
1.355506255e-09
-1.361583364e-10
1.349378253e-09
-1.375632457e-10
1.340381894e-09
-1.38278578e-10
1.328665055e-09
-1.382959666e-10
1.314359981e-09
-1.376105177e-10
1.297582025e-09
-1.362201058e-10
1.278427205e-09
-1.341246392e-10
1.256968723e-09
-1.313250993e-10
1.233252523e-09
-1.27822374e-10
1.207290185e-09
-1.236157737e-10
1.179049326e-09
-1.187012546e-10
1.148439789e-09
-1.130694472e-10
1.115294113e-09
-1.067040445e-10
1.079341589e-09
-9.958153847e-11
1.040175465e-09
-9.167445523e-11
9.972170211e-10
-8.296031961e-11
9.496836129e-10
-7.343885732e-11
8.965703508e-10
-6.315735562e-11
8.366519735e-10
-5.224265749e-11
7.685028156e-10
-4.093731758e-11
6.905275471e-10
-2.963786517e-11
6.00992163e-10
-1.893415276e-11
4.98049423e-10
-9.648958465e-12
3.797721428e-10
-2.875168649e-12
2.442316749e-10
8.960339795e-11
-5.689240081e-13
6.842595116e-11
-2.227087426e-12
2.000244241e-10
-4.892625869e-12
3.236517445e-10
-8.475712236e-12
4.392677288e-10
-1.288045061e-11
5.469172708e-10
-1.80071603e-11
6.46698372e-10
-2.375438943e-11
7.387524773e-10
-3.00201014e-11
8.232618853e-10
-3.67033075e-11
9.004421297e-10
-4.370490324e-11
9.705344576e-10
-5.092860761e-11
1.03379996e-09
-5.828161541e-11
1.09051395e-09
-6.567513507e-11
1.140960651e-09
-7.3024791e-11
1.185428843e-09
-8.025085495e-11
1.224207927e-09
-8.727860948e-11
1.25758469e-09
-9.403833119e-11
1.285840525e-09
-1.004655652e-10
1.30924937e-09
-1.065010773e-10
1.328076075e-09
-1.12091001e-10
1.342575113e-09
-1.171868271e-10
1.352989717e-09
-1.217453843e-10
1.359551325e-09
-1.257289062e-10
1.362479105e-09
-1.291048754e-10
1.361979838e-09
-1.318458223e-10
1.358247201e-09
-1.339292791e-10
1.351461709e-09
-1.353375947e-10
1.341790209e-09
-1.360573631e-10
1.329384823e-09
-1.360791855e-10
1.314381803e-09
-1.353972008e-10
1.296900041e-09
-1.340083279e-10
1.277038332e-09
-1.319117111e-10
1.254872107e-09
-1.29107622e-10
1.230448434e-09
-1.255963493e-10
1.203778913e-09
-1.213769006e-10
1.174829878e-09
-1.164452926e-10
1.143508181e-09
-1.107930394e-10
1.10964186e-09
-1.044060646e-10
1.072954614e-09
-9.726526297e-11
1.033034663e-09
-8.935071435e-11
9.893024727e-10
-8.065151266e-11
9.409844111e-10
-7.118274372e-11
8.871015817e-10
-6.100920056e-11
8.264784303e-10
-5.027420462e-11
7.577678196e-10
-3.923087382e-11
6.794842162e-10
-2.82746111e-11
5.900359001e-10
-1.797566425e-11
4.877504761e-10
-9.111521253e-12
3.709079998e-10
-2.696642037e-12
2.378167956e-10
8.690675592e-11
-5.486193834e-13
6.897457057e-11
-2.147897965e-12
2.016237028e-10
-4.720016159e-12
3.262238627e-10
-8.179923679e-12
4.427276362e-10
-1.243693851e-11
5.511742856e-10
-1.739697945e-11
6.516584131e-10
-2.296411864e-11
7.443196167e-10
-2.904176352e-11
8.293395304e-10
-3.553379016e-11
9.069341565e-10
-4.234565252e-11
9.773463201e-10
-4.938501079e-11
1.040839318e-09
-5.656232093e-11
1.09769126e-09
-6.379140108e-11
1.148189731e-09
-7.098980332e-11
1.192627245e-09
-7.807912841e-11
1.231297252e-09
-8.498537975e-11
1.264490941e-09
-9.163906457e-11
1.29249421e-09
-9.797550533e-11
1.31558581e-09
-1.039348972e-10
1.334035467e-09
-1.094625536e-10
1.348102769e-09
-1.14508889e-10
1.358036052e-09
-1.190296329e-10
1.364072068e-09
-1.229857649e-10
1.366435237e-09
-1.263434299e-10
1.365337504e-09
-1.290740186e-10
1.36097779e-09
-1.311538451e-10
1.353541536e-09
-1.325640086e-10
1.343200373e-09
-1.33290006e-10
1.33011082e-09
-1.333214108e-10
1.314413208e-09
-1.326513817e-10
1.296230012e-09
-1.31275948e-10
1.275662898e-09
-1.291934171e-10
1.252789575e-09
-1.2640335e-10
1.227658367e-09
-1.229055178e-10
1.20028108e-09
-1.186986527e-10
1.170623012e-09
-1.137790263e-10
1.138588554e-09
-1.081392549e-10
1.104002088e-09
-1.017677139e-10
1.066583073e-09
-9.46499439e-11
1.025916893e-09
-8.677362248e-11
9.814261513e-10
-7.813876029e-11
9.323495491e-10
-6.87742684e-11
8.7773709e-10
-5.875982004e-11
8.164639821e-10
-4.825147096e-11
7.472594706e-10
-3.750880828e-11
6.687415535e-10
-2.692226531e-11
5.794493572e-10
-1.704018268e-11
4.778683935e-10
-8.595222207e-12
3.624630394e-10
-2.528074755e-12
2.317496482e-10
8.437868117e-11
-5.264282397e-13
6.950099881e-11
-2.061321307e-12
2.031585959e-10
-4.531150462e-12
3.286936919e-10
-7.855873605e-12
4.460523594e-10
-1.195037638e-11
5.552687884e-10
-1.672648786e-11
6.564345247e-10
-2.20939938e-11
7.496871228e-10
-2.796205156e-11
8.35207588e-10
-3.42398427e-11
9.132119473e-10
-4.083757289e-11
9.839440503e-10
-4.766711078e-11
1.047668856e-09
-5.464250227e-11
1.104666651e-09
-6.168050923e-11
1.155227738e-09
-6.870092798e-11
1.199647664e-09
-7.562703455e-11
1.238223359e-09
-8.238579434e-11
1.271249701e-09
-8.890830207e-11
1.299016717e-09
-9.512995898e-11
1.321807467e-09
-1.009907688e-10
1.339896277e-09
-1.064354101e-10
1.35354741e-09
-1.114136517e-10
1.363014294e-09
-1.158801742e-10
1.368538591e-09
-1.197950388e-10
1.370350101e-09
-1.231233389e-10
1.368665803e-09
-1.258352377e-10
1.363689689e-09
-1.279060099e-10
1.355612308e-09
-1.293156222e-10
1.344609985e-09
-1.300485428e-10
1.330843741e-09
-1.300933868e-10
1.314458052e-09
-1.294422568e-10
1.295578881e-09
-1.280903732e-10
1.274311015e-09
-1.260351781e-10
1.25073438e-09
-1.232755069e-10
1.224898696e-09
-1.198106865e-10
1.19681626e-09
-1.156392469e-10
1.166451573e-09
-1.107578414e-10
1.133707149e-09
-1.051603607e-10
1.098404608e-09
-9.883786501e-11
1.060260578e-09
-9.178065125e-11
1.018859679e-09
-8.398377279e-11
9.736292726e-10
-7.545742207e-11
9.238231984e-10
-6.624273881e-11
8.685224068e-10
-5.643176674e-11
8.066530099e-10
-4.619005041e-11
7.370177542e-10
-3.578003677e-11
6.583315398e-10
-2.558420419e-11
5.692535246e-10
-1.612742773e-11
4.684116171e-10
-8.098343223e-12
3.544339549e-10
-2.368324088e-12
2.260196291e-10
8.201035708e-11
-5.029338039e-13
7.000393261e-11
-1.969629777e-12
2.046252918e-10
-4.330960025e-12
3.310550221e-10
-7.51202769e-12
4.492334271e-10
-1.143348154e-11
5.591902423e-10
-1.601304976e-11
6.610140927e-10
-2.116653217e-11
7.54840605e-10
-2.68087686e-11
8.408498245e-10
-3.285450677e-11
9.192576855e-10
-3.92189142e-11
9.903084576e-10
-4.581825503e-11
1.054268196e-09
-5.257039201e-11
1.111418788e-09
-5.939518055e-11
1.162052527e-09
-6.621497018e-11
1.206467453e-09
-7.295493567e-11
1.244963324e-09
-7.954345549e-11
1.277838221e-09
-8.591247677e-11
1.305385739e-09
-9.199779346e-11
1.327892784e-09
-9.773945593e-11
1.345637939e-09
-1.030819688e-10
1.358889924e-09
-1.079745245e-10
1.36790685e-09
-1.123712978e-10
1.372935364e-09
-1.162314318e-10
1.374210235e-09
-1.195191605e-10
1.371953532e-09
-1.222036975e-10
1.366374226e-09
-1.242593836e-10
1.357667994e-09
-1.256652317e-10
1.346015833e-09
-1.264047071e-10
1.331583217e-09
-1.264654057e-10
1.31451875e-09
-1.258385442e-10
1.29495202e-09
-1.245184098e-10
1.27299088e-09
-1.225016582e-10
1.248717629e-09
-1.197864956e-10
1.222183533e-09
-1.163717348e-10
1.193401499e-09
-1.12255858e-10
1.162335696e-09
-1.074359861e-10
1.128887277e-09
-1.019074219e-10
1.092876043e-09
-9.566403327e-11
1.054017189e-09
-8.870090564e-11
1.011896552e-09
-8.102011348e-11
9.659484807e-10
-7.264118274e-11
9.154442674e-10
-6.361586529e-11
8.594970891e-10
-5.40462612e-11
7.970834057e-10
-4.410457075e-11
7.270760637e-10
-3.40531873e-11
6.482801563e-10
-2.426418421e-11
5.594645215e-10
-1.523781392e-11
4.593852469e-10
-7.619875705e-12
3.468160167e-10
-2.216592744e-12
2.206163461e-10
7.979376432e-11
-4.786986853e-13
7.048263129e-11
-1.875012296e-12
2.060216055e-10
-4.124235087e-12
3.33304245e-10
-7.156647646e-12
4.522658397e-10
-1.089858594e-11
5.629321806e-10
-1.52735979e-11
6.653891048e-10
-2.020355198e-11
7.597705591e-10
-2.560901583e-11
8.462552885e-10
-3.141015212e-11
9.25058822e-10
-3.752720732e-11
9.964255128e-10
-4.38809573e-11
1.060621946e-09
-5.03931721e-11
1.117931003e-09
-5.698706055e-11
1.168646415e-09
-6.358769642e-11
1.213068089e-09
-7.01224492e-11
1.251498077e-09
-7.652131699e-11
1.284237088e-09
-8.271737703e-11
1.311581799e-09
-8.864723436e-11
1.333822641e-09
-9.425126146e-11
1.351241966e-09
-9.947403238e-11
1.364112695e-09
-1.042645955e-10
1.372697413e-09
-1.085767493e-10
1.377247518e-09
-1.123690155e-10
1.378002502e-09
-1.156050195e-10
1.375189536e-09
-1.182533384e-10
1.369022545e-09
-1.202873756e-10
1.359702032e-09
-1.216852574e-10
1.347413715e-09
-1.224295596e-10
1.332327519e-09
-1.225070081e-10
1.314596199e-09
-1.219079188e-10
1.29435293e-09
-1.206257462e-10
1.271708708e-09
-1.186563444e-10
1.246748227e-09
-1.159973066e-10
1.219524495e-09
-1.12647069e-10
1.190051261e-09
-1.086040454e-10
1.158292672e-09
-1.038659908e-10
1.124149222e-09
-9.842970585e-11
1.087439759e-09
-9.229194766e-11
1.047879431e-09
-8.545240627e-11
1.00505701e-09
-7.79198453e-11
9.584159198e-10
-6.97221309e-11
9.072465532e-10
-6.092005406e-11
8.506950125e-10
-5.162355349e-11
7.877869053e-10
-4.200907741e-11
7.174615876e-10
-3.233664154e-11
6.386077206e-10
-2.296600818e-11
5.500938883e-10
-1.437215398e-11
4.507913926e-10
-7.159274389e-12
3.396031371e-10
-2.072333423e-12
2.155294051e-10
7.77214309e-11
-4.54260973e-13
7.09368923e-11
-1.779575139e-12
2.073469196e-10
-3.915588346e-12
3.354402581e-10
-6.797619333e-12
4.551478706e-10
-1.035743807e-11
5.664919993e-10
-1.452438134e-11
6.695560482e-10
-1.922602003e-11
7.644721979e-10
-2.438866317e-11
8.514179313e-10
-2.99377807e-11
9.306079392e-10
-3.579855055e-11
1.002286283e-09
-4.189624559e-11
1.066719642e-09
-4.815664674e-11
1.124191404e-09
-5.450641488e-11
1.174996183e-09
-6.087352503e-11
1.2194352e-09
-6.718769044e-11
1.257812242e-09
-7.338079463e-11
1.290430193e-09
-7.938742823e-11
1.317588432e-09
-8.514517348e-11
1.339580386e-09
-9.059510627e-11
1.356691899e-09
-9.568222397e-11
1.369199812e-09
-1.00355644e-10
1.377370833e-09
-1.045690695e-10
1.381460944e-09
-1.082808651e-10
1.381714297e-09
-1.114540796e-10
1.37836275e-09
-1.140567885e-10
1.371625254e-09
-1.160617571e-10
1.361707e-09
-1.174463591e-10
1.348798317e-09
-1.181924513e-10
1.333073611e-09
-1.182859187e-10
1.314689667e-09
-1.177162587e-10
1.293783271e-09
-1.164761295e-10
1.270468578e-09
-1.145606912e-10
1.244832789e-09
-1.119669298e-10
1.216930734e-09
-1.086929504e-10
1.186777282e-09
-1.047372551e-10
1.154336977e-09
-1.000982459e-10
1.119510213e-09
-9.4774307e-11
1.082115819e-09
-8.87650464e-11
1.04187017e-09
-8.207459135e-11
9.983665552e-10
-7.471779174e-11
9.510591199e-10
-6.673001763e-11
8.99258779e-10
-5.817954034e-11
8.421445351e-10
-4.918225918e-11
7.787896241e-10
-3.991660278e-11
7.081959312e-10
-3.063820512e-11
6.293293229e-10
-2.169329308e-11
5.411489761e-10
-1.353125097e-11
4.426293505e-10
-6.716025471e-12
3.327879116e-10
-1.935003911e-12
2.107483836e-10
7.5786427e-11
-4.301421378e-13
7.136703444e-11
-1.685351273e-12
2.086021287e-10
-3.709432552e-12
3.374643394e-10
-6.442449094e-12
4.578808872e-10
-9.8213339e-12
5.698708841e-10
-1.378094742e-11
6.735156614e-10
-1.825421356e-11
7.689454638e-10
-2.317282767e-11
8.563365456e-10
-2.846744022e-11
9.359025519e-10
-3.406800057e-11
1.007886843e-09
-3.99041774e-11
1.072555819e-09
-4.590566566e-11
1.130192892e-09
-5.200260404e-11
1.181093122e-09
-5.812598978e-11
1.225558585e-09
-6.420808191e-11
1.263894334e-09
-7.018291646e-11
1.296405027e-09
-7.598668768e-11
1.323392204e-09
-8.155839213e-11
1.345152091e-09
-8.684006183e-11
1.361973568e-09
-9.177735467e-11
1.374137105e-09
-9.631988899e-11
1.381913368e-09
-1.004215158e-10
1.385562571e-09
-1.040405719e-10
1.385333354e-09
-1.07139955e-10
1.381462134e-09
-1.096874225e-10
1.374172722e-09
-1.116553067e-10
1.363674885e-09
-1.130204463e-10
1.350163456e-09
-1.137640322e-10
1.333817197e-09
-1.138711962e-10
1.31479683e-09
-1.1333078e-10
1.293242855e-09
-1.121347243e-10
1.269272523e-09
-1.10277518e-10
1.242975583e-09
-1.077556803e-10
1.214408896e-09
-1.045670235e-10
1.183588625e-09
-1.007101455e-10
1.150480099e-09
-9.6184232e-11
1.114984299e-09
-9.098923725e-11
1.076920824e-09
-8.512759695e-11
1.03600853e-09
-7.86075987e-11
9.91846557e-10
-7.144967989e-11
9.439012012e-10
-6.369547879e-11
8.915045778e-10
-5.541951851e-11
8.338685748e-10
-4.674190215e-11
7.701120076e-10
-3.784123439e-11
6.992952634e-10
-2.896710153e-11
6.2045519e-10
-2.045116938e-11
5.32633044e-10
-1.271728246e-11
4.348954636e-10
-6.290629533e-12
3.263612587e-10
-1.804556306e-12
2.062623104e-10
7.398187069e-11
-4.068151721e-13
7.17738496e-11
-1.594176874e-12
2.097894905e-10
-3.50975683e-12
3.393799195e-10
-6.097983677e-12
4.604691141e-10
-9.30063958e-12
5.7307354e-10
-1.305751193e-11
6.772725339e-10
-1.730668174e-11
7.731946337e-10
-2.19846901e-11
8.61014554e-10
-2.702699865e-11
9.409448606e-10
-3.236811538e-11
1.01322796e-09
-3.794189691e-11
1.0781296e-09
-4.36818632e-11
1.135932858e-09
-4.952161466e-11
1.186932873e-09
-5.539522793e-11
1.231432199e-09
-6.123757245e-11
1.269736679e-09
-6.69849557e-11
1.30215241e-09
-7.257555581e-11
1.328982804e-09
-7.794986025e-11
1.350526395e-09
-8.305125916e-11
1.367074967e-09
-8.782634458e-11
1.37891219e-09
-9.22255063e-11
1.386312529e-09
-9.620304479e-11
1.389540109e-09
-9.97175814e-11
1.388847889e-09
-1.027322001e-10
1.384476752e-09
-1.052145105e-10
1.376655032e-09
-1.071365711e-10
1.365596945e-09
-1.08474885e-10
1.35150177e-09
-1.092101662e-10
1.334552478e-09
-1.093270164e-10
1.31491368e-09
-1.088136604e-10
1.292729498e-09
-1.076614555e-10
1.268120318e-09
-1.058643537e-10
1.241178481e-09
-1.034184259e-10
1.211962968e-09
-1.003213077e-10
1.180491507e-09
-9.657183653e-11
1.146730628e-09
-9.216990354e-11
1.110582366e-09
-8.711709153e-11
1.071868012e-09
-8.141844922e-11
1.030309888e-09
-7.508620603e-11
9.855143139e-10
-6.814573416e-11
9.369607294e-10
-6.064410627e-11
8.8400295e-10
-5.266060603e-11
8.258850746e-10
-4.431799885e-11
7.617694006e-10
-3.579365984e-11
6.907709246e-10
-2.73297271e-11
6.119912573e-10
-1.924261254e-11
5.245459294e-10
-1.193089559e-11
4.275837468e-10
-5.882678807e-12
3.20313042e-10
-1.68055161e-12
2.020601832e-10
7.230131908e-11
-3.847151016e-13
7.21585647e-11
-1.507744351e-12
2.109125197e-10
-3.3202629e-12
3.41192438e-10
-5.77066361e-12
4.629195148e-10
-8.805047156e-12
5.761079236e-10
-1.236756103e-11
6.808350478e-10
-1.640088403e-11
7.772279568e-10
-2.084607249e-11
8.654597423e-10
-2.564287038e-11
9.457416581e-10
-3.07299424e-11
1.018315032e-09
-3.604509139e-11
1.083444749e-09
-4.152551519e-11
1.141413282e-09
-4.710814679e-11
1.192515505e-09
-5.273000172e-11
1.237054053e-09
-5.832873431e-11
1.275335412e-09
-6.384307263e-11
1.307666749e-09
-6.921327838e-11
1.334353009e-09
-7.438164328e-11
1.35569476e-09
-7.929309058e-11
1.371986415e-09
-8.389550837e-11
1.383514608e-09
-8.814026608e-11
1.390557286e-09
-9.198253186e-11
1.393382375e-09
-9.538143127e-11
1.392246789e-09
-9.830043275e-11
1.387395754e-09
-1.007072882e-10
1.379061887e-09
-1.025740934e-10
1.36746375e-09
-1.038772333e-10
1.35280491e-09
-1.045971485e-10
1.335272393e-09
-1.047180581e-10
1.31503459e-09
-1.042277534e-10
1.292239193e-09
-1.031170496e-10
1.267009614e-09
-1.013795351e-10
1.239440966e-09
-9.901092564e-11
1.209594358e-09
-9.600878249e-11
1.177489364e-09
-9.237217367e-11
1.143094019e-09
-8.810185726e-11
1.10631205e-09
-8.320095751e-11
1.066967113e-09
-7.767705394e-11
1.024785984e-09
-7.154580096e-11
9.793830609e-10
-6.483688173e-11
9.3025181e-10
-5.760200989e-11
8.767680782e-10
-4.992400972e-11
8.182070744e-10
-4.192690827e-11
7.537722991e-10
-3.378545796e-11
6.826294742e-10
-2.573348482e-11
6.039392842e-10
-1.807165015e-11
5.168840948e-10
-1.11737803e-11
4.206858769e-10
-5.492512068e-12
3.146317737e-10
-1.56291128e-12
1.981305824e-10
7.073840781e-11
-3.642282759e-13
7.252279301e-11
-1.427578935e-12
2.119758704e-10
-3.14433008e-12
3.429091891e-10
-5.466340271e-12
4.652415249e-10
-8.343330165e-12
5.789849134e-10
-1.172337834e-11
6.842150959e-10
-1.555295466e-11
7.810575331e-10
-1.977710518e-11
8.69683893e-10
-2.433942779e-11
9.503039809e-10
-2.918228876e-11
1.023157893e-09
-3.424702357e-11
1.088509484e-09
-3.947418729e-11
1.146640446e-09
-4.480388519e-11
1.197845203e-09
-5.017611058e-11
1.242426279e-09
-5.553126028e-11
1.280690561e-09
-6.08104612e-11
1.31294595e-09
-6.595624428e-11
1.339498793e-09
-7.091291376e-11
1.36065143e-09
-7.562714473e-11
1.376700646e-09
-8.004837918e-11
1.387935842e-09
-8.412930661e-11
1.394638214e-09
-8.782609441e-11
1.397079163e-09
-9.109881747e-11
1.395519513e-09
-9.391159914e-11
1.390208535e-09
-9.623263197e-11
1.38138292e-09
-9.80342574e-11
1.369265376e-09
-9.929295572e-11
1.354063609e-09
-9.998910355e-11
1.335968542e-09
-1.001067806e-10
1.315152268e-09
-9.963349064e-11
1.291765904e-09
-9.85597515e-11
1.265935875e-09
-9.687885498e-11
1.23776007e-09
-9.458636244e-11
1.207301866e-09
-9.167979856e-11
1.1745828e-09
-8.815859348e-11
1.139572813e-09
-8.402429072e-11
1.102177747e-09
-7.928151817e-11
1.06222434e-09
-7.394022622e-11
1.019444692e-09
-6.801920651e-11
9.734620412e-10
-6.15518127e-11
9.237844163e-10
-5.459326726e-11
8.698095327e-10
-4.72290818e-11
8.10842889e-10
-3.958335477e-11
7.46126572e-10
-3.182705327e-11
6.748731727e-10
-2.418500545e-11
5.962972363e-10
-1.694187808e-11
5.096409674e-10
-1.044737414e-11
4.14191373e-10
-5.120401001e-12
3.093048006e-10
-1.451535564e-12
1.94461717e-10
6.928687224e-11
-3.457118212e-13
7.286850484e-11
-1.355078424e-12
2.12985237e-10
-2.985018677e-12
3.445391293e-10
-5.190234407e-12
4.674467407e-10
-7.923443206e-12
5.817181223e-10
-1.113596842e-11
6.874276213e-10
-1.47774862e-11
7.846990509e-10
-1.879623114e-11
8.73702638e-10
-2.313908992e-11
9.546468397e-10
-2.775163151e-11
1.027770434e-09
-3.257831477e-11
1.093336167e-09
-3.756271086e-11
1.151624842e-09
-4.264787946e-11
1.202930371e-09
-4.777660276e-11
1.247555002e-09
-5.28918709e-11
1.285805829e-09
-5.793736744e-11
1.317991446e-09
-6.28579045e-11
1.34441933e-09
-6.75999558e-11
1.365393481e-09
-7.211214751e-11
1.381212837e-09
-7.634572164e-11
1.392169416e-09
-8.02549302e-11
1.398547423e-09
-8.379733692e-11
1.400621569e-09
-8.693413837e-11
1.398656314e-09
-8.963038804e-11
1.392904785e-09
-9.185502967e-11
1.383607561e-09
-9.358098142e-11
1.370991327e-09
-9.478508072e-11
1.355267708e-09
-9.544783502e-11
1.336631296e-09
-9.555345597e-11
1.315257888e-09
-9.508933761e-11
1.291301785e-09
-9.404597414e-11
1.264892511e-09
-9.241642614e-11
1.236130521e-09
-9.019620373e-11
1.205081643e-09
-8.738295013e-11
1.171769547e-09
-8.397657321e-11
1.136166437e-09
-7.997945007e-11
1.098180624e-09
-7.539764811e-11
1.057642538e-09
-7.024313357e-11
1.014290178e-09
-6.453752308e-11
9.677564309e-10
-5.831727982e-11
9.175641732e-10
-5.164039365e-11
8.631326466e-10
-4.459385239e-11
8.037963477e-10
-3.73009923e-11
7.38833712e-10
-2.992809593e-11
6.675002763e-10
-2.269038329e-11
5.890595238e-10
-1.58565898e-11
5.028071739e-10
-9.753022863e-12
4.08087806e-10
-4.766576839e-12
3.043183546e-10
-1.346317683e-12
1.910414579e-10
6.794055456e-11
-3.294816528e-13
7.319798648e-11
-1.291468415e-12
2.139472237e-10
-2.844996861e-12
3.460926578e-10
-4.946959364e-12
4.695487033e-10
-7.55249288e-12
5.843236558e-10
-1.061524228e-11
6.904903707e-10
-1.408748283e-11
7.881712915e-10
-1.791997676e-11
8.775351318e-10
-2.206212563e-11
9.587889884e-10
-2.646214505e-11
1.032170454e-09
-3.106712304e-11
1.097941145e-09
-3.582330106e-11
1.156381021e-09
-4.067626509e-11
1.207783336e-09
-4.557134377e-11
1.252450081e-09
-5.045415427e-11
1.29068864e-09
-5.527081131e-11
1.322808103e-09
-5.996844115e-11
1.349116959e-09
-6.44958014e-11
1.369920841e-09
-6.88036616e-11
1.385520698e-09
-7.284525323e-11
1.396211008e-09
-7.657660269e-11
1.402278772e-09
-7.995689226e-11
1.404001859e-09
-8.29488357e-11
1.401648257e-09
-8.551871195e-11
1.395474662e-09
-8.763649772e-11
1.385725348e-09
-8.927596764e-11
1.372630798e-09
-9.041450875e-11
1.356406249e-09
-9.10331676e-11
1.337249954e-09
-9.111642643e-11
1.315341147e-09
-9.065189607e-11
1.290837255e-09
-8.963010696e-11
1.263870723e-09
-8.804427062e-11
1.234544686e-09
-8.588995434e-11
1.202927328e-09
-8.316508851e-11
1.169044681e-09
-7.986996384e-11
1.132871312e-09
-7.600784153e-11
1.094318502e-09
-7.158626738e-11
1.053220964e-09
-6.661909118e-11
1.009323001e-09
-6.113019886e-11
9.622675382e-10
-5.515860778e-11
9.115925819e-10
-4.876438366e-11
8.567384225e-10
-4.203512227e-11
7.970670863e-10
-3.509248136e-11
7.31891071e-10
-2.809744126e-11
6.605052361e-10
-2.125521936e-11
5.822173019e-10
-1.481880256e-11
4.963707572e-10
-9.091929073e-12
4.023609325e-10
-4.431264209e-12
2.996576897e-10
-1.247191447e-12
1.878573851e-10
6.669336312e-11
-3.158043927e-13
7.351379087e-11
-1.237787826e-12
2.148692072e-10
-2.726552447e-12
3.475814224e-10
-4.740573506e-12
4.715627242e-10
-7.236635756e-12
5.86819718e-10
-1.016997471e-11
6.934237096e-10
-1.349457022e-11
7.914958869e-10
-1.71630197e-11
8.812035813e-10
-2.112661851e-11
9.627525873e-10
-2.533550826e-11
1.036379343e-09
-2.973885175e-11
1.102344488e-09
-3.428502144e-11
1.16092719e-09
-3.892180577e-11
1.21242012e-09
-4.359697783e-11
1.257125253e-09
-4.825832906e-11
1.295349991e-09
-5.285433598e-11
1.32740411e-09
-5.733458138e-11
1.353597205e-09
-6.165011063e-11
1.374236371e-09
-6.575387599e-11
1.389624463e-09