/*--------------------------------*- C++ -*----------------------------------*\
  =========                 |
  \\      /  F ield         | OpenFOAM: The Open Source CFD Toolbox
   \\    /   O peration     | Website:  https://openfoam.org
    \\  /    A nd           | Version:  7
     \\/     M anipulation  |
\*---------------------------------------------------------------------------*/
FoamFile
{
    version     2.0;
    format      ascii;
    class       volScalarField;
    location    "0.0024";
    object      thermo:mu;
}
// * * * * * * * * * * * * * * * * * * * * * * * * * * * * * * * * * * * * * //

dimensions      [1 -1 -1 0 0 0 0];

internalField   nonuniform List<scalar> 
1167
(
279066.7754
277079.1272
272861.0046
266725.7105
258908.4091
249650.1385
239189.6998
227759.4038
215595.8052
202914.1938
189920.1049
176808.9651
163748.7915
150891.9773
138371.3103
126298.5257
114764.769
103840.9467
93580.52049
84016.86601
75166.50385
67033.35948
59607.04012
52866.9022
46783.16455
41321.2517
36440.35222
32097.31464
28247.81677
24847.8893
21854.12812
19224.80618
16920.76303
14905.33468
13144.98916
273908.1471
271904.2772
267652.7494
261471.3912
253600.5737
244291.4099
233776.2718
222306.883
210110.7848
197423.4307
184448.0105
171379.891
158394.6251
145647.584
133270.2203
121373.4804
110046.2484
99355.82561
89349.5736
80056.28607
71490.46057
63646.37948
56511.01467
50057.03272
44252.14264
39056.8238
34427.95426
30320.39797
26688.74668
23488.19772
20675.08875
18208.25515
16049.12892
14162.07389
12514.68845
11077.57454
9824.447953
8731.839565
7779.05705
6947.744865
6221.904665
5587.574944
5032.562151
4546.308591
4119.604336
3744.503989
3414.123006
3122.508353
2864.472289
2635.53753
268765.1827
266745.9718
262463.0029
256238.7229
248325.0669
238964.6161
228405.6281
216903.5391
204693.1638
192006.9738
179065.0538
166059.6047
153168.9134
140548.7493
128331.2654
116625.3416
105516.4368
95068.49855
85325.57817
76310.0453
68027.91414
60473.0209
53622.78421
47448.37876
41912.17104
36971.89045
32582.21101
28696.47391
25268.68101
22253.34002
19607.07784
17289.42195
15262.65676
13492.48697
11947.54574
10599.77398
9424.159471
8398.493283
7503.247735
6721.276675
6037.621173
5439.201093
4914.655685
4454.170186
4049.227669
3692.456306
3377.468978
3098.759759
2851.509157
2631.572629
263640.153
261606.7498
257294.8708
251035.5379
243080.3317
233675.7728
223085.909
211557.7002
199346.1042
186680.3598
173782.1388
160855.2847
148075.7609
135599.1735
123556.8791
112055.132
101178.1031
90983.62831
81508.29871
72771.99315
64774.96897
57503.69236
50932.9117
45028.91221
39750.38889
35052.88005
30889.38701
27212.05691
23974.14287
21130.33827
18637.94551
16457.22036
14551.4959
12887.60674
11435.54968
10168.64453
9063.04621
8097.752102
7254.379045
6516.811076
5871.06268
5304.916955
4807.804582
4370.573753
3985.28913
3645.09793
3344.064788
3077.069313
2839.644037
2627.937478
258535.4909
256489.289
252154.024
245864.4254
237871.1435
228433.6008
217819.5395
206281.4755
194077.4851
181448.1042
168614.0794
155779.7854
143126.1492
130808.4063
118955.9818
107671.8405
97034.32536
87097.15987
77895.15879
69437.858
61722.66849
54729.65144
48430.70456
42786.46932
37754.16944
33287.2867
29336.53683
25853.97058
22792.6533
20107.59999
17756.91538
15701.73449
13906.64725
12339.65699
10972.06222
9778.39542
8736.09685
7825.368955
7028.841044
6331.389203
5719.898627
5182.929841
4710.612608
4294.407052
3926.925531
3601.783021
3313.450247
3057.152241
2828.728261
2624.587803
253454.5675
251399.8401
247045.2377
240726.3635
232702.1227
223244.3999
212612.7601
201079.5779
188897.3904
176316.5038
163562.1772
150838.5354
138326.9478
126181.8898
114530.4089
103472.2227
93083.0654
83410.30218
74480.07197
66301.33811
58862.39046
52141.72953
46104.24022
40709.37163
35911.86744
31662.24993
27911.22
24610.47723
21713.12255
19174.82971
16954.57445
15014.53229
13320.58567
11841.93221
10551.18245
9424.075873
8439.218107
7577.901332
6823.764878
6162.617211
5582.132792
5071.59593
4621.778641
4224.684837
3873.413051
3561.999817
3285.281054
3038.792101
2818.64713
2621.489342
248404.9713
246340.7648
241967.4754
235625.1442
227581.8002
218109.0833
207474.1874
195955.789
183813.4942
171295.5334
158633.0359
146034.6873
133679.2532
121719.8377
110281.7413
99459.98029
89323.18403
79915.01057
71258.79119
63353.21628
56186.241
49728.25214
43942.8271
38786.53724
34210.89421
30165.99104
26602.13841
23470.85237
20725.5434
18322.84931
16222.60325
14388.18076
12786.72013
11388.67297
10167.92557
9101.36943
8168.716335
7352.297094
6636.677271
6008.513528
5456.20396
4969.701068
4540.356919
4160.67726
3824.198187
3525.333611
3259.273161
3021.810175
2809.306026
2618.613873
243383.5186
241311.7739
236923.9837
230564.5705
222512.7604
213032.344
202409.6564
190915.5426
178827.1373
166389.6115
153836.7625
141377.084
129190.7326
117428.5152
106210.9279
95629.80031
85749.79478
76608.98211
68221.71421
60586.96421
53682.85616
47479.37252
41935.73305
37005.79931
32640.02865
28787.7632
25399.15177
22425.62259
19821.27112
17543.688
15553.79748
13816.30435
12299.48206
10975.07425
9818.147912
8806.73218
7921.601585
7146.029043
6465.459916
5867.325464
5340.685579
4876.105391
4465.461073
4101.716521
3778.802878
3491.471612
3235.190781
3006.057291
2800.625987
2615.937863
238393.0439
236315.833
231917.9951
225554.6603
217496.1167
208020.6849
197419.934
185969.8321
173943.0045
161600.0849
149170.9631
136864.1059
124858.6463
113302.6554
102313.7163
91980.49578
82358.8675
73482.73456
65363.49623
57991.211
51343.34825
45384.47376
40071.35546
35356.50965
31189.17096
27517.80491
24292.63697
21465.649
18991.84252
16829.77274
14941.49955
13293.00515
11853.75248
10596.73178
9498.135766
8537.064331
7695.302751
6956.996237
6308.407859
5737.66813
5234.462328
4789.912362
4396.368179
4047.241593
3736.795366
3460.086274
3212.854653
2991.407719
2792.540455
2613.441487
233436.4428
231355.934
226957.6253
220591.9636
212535.5374
203079.9559
192508.9837
181115.8595
169170.3433
156932.5434
144638.7582
132496.724
120683.6089
109343.9445
98590.7415
88505.74024
79143.21415
70530.94764
62673.19923
55557.97312
49157.2509
43432.57021
38339.95291
33829.0069
29848.10762
26346.19335
23273.57913
20582.81955
18229.96367
16174.57274
14379.91862
12813.20026
11445.10054
10249.81635
9204.607455
8289.584237
7487.482103
6783.255822
6163.927526
5618.265118
5136.534128
4710.365443
4332.536523
3996.813633
3697.830465
3430.92856
3192.070634
2977.75425
2784.992688
2611.107857
228519.5076
226440.6908
222042.4773
215679.7282
207637.1195
198209.261
187684.3705
176356.7859
164505.8321
152389.6911
140245.1198
128279.047
116666.3404
105548.2748
95033.70075
85201.1213
76097.13228
67743.94689
60143.48657
53277.04714
47114.24737
41614.82717
36731.25856
32412.78395
28607.43235
25264.42122
22334.22776
19770.1737
17529.37743
15572.4986
13864.15073
12372.66213
11069.93315
9931.268441
8934.975107
8062.129418
7296.321709
6623.291171
6030.754113
5508.060454
5046.011572
4636.738276
4273.375764
3950.034263
3661.629675
3403.784426
3172.692161
2965.017215
2777.933816
2608.92243
223645.8397
221568.1117
217173.835
210821.0391
202804.8035
193411.6469
182946.5203
171698.0449
159951.393
147969.2607
135985.3026
124205.2313
112801.0142
101911.4219
91641.05778
82059.83539
73211.91384
65115.02079
57764.25115
51139.08226
45205.59832
39920.42233
35235.3895
31099.20647
27459.25668
24264.88008
21467.30623
19020.95428
16883.96981
15018.16799
13389.42693
11967.21798
10724.61436
9637.971896
8686.592024
7852.460495
7119.982888
6475.618385
5907.711581
5406.151375
4962.233327
4568.480517
4218.430988
3906.529401
3627.930536
3378.468376
3154.592081
2953.104045
2771.321392
2606.872587
218814.5149
216740.1377
212354.6107
206023.5823
198037.7122
188692.6181
178295.6383
167141.1152
155512.4141
143673.5411
131860.0119
120275.3348
109087.8704
98431.25978
88404.31638
79074.95144
70480.99017
62634.14261
55527.16121
49135.02391
43420.70032
38340.68341
33844.43442
29879.79482
26395.02307
23339.75013
20665.91496
18329.08879
16288.46083
14507.00173
12951.79366
11593.47953
10406.2734
9367.52747
8457.470368
7658.957857
6957.109718
6339.077177
5793.792976
5311.673476
4884.475882
4505.079019
4167.341446
3865.99691
3596.491895
3354.839405
3137.658032
2941.942853
2765.117898
2604.947162
214028.4008
211959.6209
207590.3745
201286.5861
193338.3875
184054.5049
173733.9421
162684.3183
151186.1371
139503.146
127869.8593
116487.3399
105520.6538
95099.30232
85318.87631
76239.9566
67895.01691
60293.94121
53422.89478
47255.13509
41751.9253
36866.71902
32548.91282
28746.32979
25407.65224
22482.74796
19924.49472
17689.55661
15738.24817
14034.88785
12547.6535
11248.33454
10112.20553
9117.582692
8245.578106
7479.866497
6806.2738
6212.553058
5688.165672
5223.988238
4812.182024
4446.056524
4119.735817
3828.188115
3567.114229
3332.731619
3121.792001
2931.471649
2759.290328
2603.136308
209290.8584
207232.5679
202884.3847
196611.1327
188711.9381
179495.8778
169267.4783
158329.0579
146971.0894
135453.5721
124008.8952
112835.1389
102094.6279
91913.05962
82377.62344
73546.06596
65447.64638
58084.71284
51442.97023
45491.49993
40189.40545
35489.9575
31341.69361
27692.21329
24490.55468
21687.5518
19237.13532
17097.05448
15228.76801
13597.88056
12173.65755
10928.96083
9840.065964
8886.220919
8049.382081
7313.944419
6666.380994
6095.065243
5589.975861
5142.412868
4744.902164
4391.023972
4075.291295
3792.866571
3539.620931
3312.016034
3106.906494
2921.635195
2753.809308
2601.431278
204609.657
202561.2759
198235.7465
191999.5633
184160.386
175018.2525
164891.7797
154079.2966
142869.5427
131524.961
120276.3031
109317.9697
98807.35672
88864.13022
79573.08952
70987.46414
63128.8027
55999.31883
49578.71476
43834.8064
38725.9965
34203.22047
30215.07079
26709.87114
23637.20371
20948.60659
18599.10565
16547.53929
14756.56784
13192.95784
11827.0866
10632.93928
9587.727277
8671.5705
7867.222681
7159.809924
6536.376171
5985.835831
5498.584721
5066.370276
4682.123273
4339.665175
4033.731686
3759.800278
3513.864716
3292.578361
3092.932369
2912.3833
2748.648117
2599.824105
199981.8219
197945.4242
193646.9148
187458.4791
179682.2567
170627.1037
160607.3782
149929.967
138879.1597
127716.2037
116669.2957
105929.5176
95650.17506
85947.12093
76899.9728
68554.37073
60932.65878
54028.3476
47822.14057
42278.15533
37353.21466
32998.48907
29162.51045
25793.76854
22842.3825
20260.94919
18005.74757
16036.72365
14317.75231
12816.70875
11505.11573
10357.94688
9353.303579
8472.126734
7697.927247
7016.424078
6415.297113
5884.020342
5413.357789
4995.415925
4623.446086
4291.61433
3994.833247
3728.797558
3489.703786
3274.314355
3079.790742
2903.670731
2743.782573
2598.307557
195409.9913
193387.5468
189122.5129
182986.4925
175279.0383
166319.9966
156417.5633
145880.416
134996.2476
124021.6356
113181.7308
102664.1764
92619.84319
83156.43229
74348.92416
66242.10897
58849.25409
52165.42999
46165.2055
40812.88617
36064.43832
31869.74842
28177.64557
24937.53283
22100.30955
19619.6888
17452.93083
15561.12637
13909.41883
12466.73384
11205.62098
10102.06599
9135.054407
8286.320884
7540.139431
6882.761214
6302.416366
5788.975841
5333.705877
4929.061531
4568.542054
4246.583848
3958.357183
3699.685719
3466.993419
3257.129384
3067.412796
2895.456108
2739.193845
2596.875004
190896.7262
188892.6776
184665.6725
178583.9404
170955.8642
162096.3642
152320.9953
141933.7825
131221.0917
120440.1177
109812.2494
99520.87337
89709.66599
80483.65958
71915.49316
64040.82899
56873.16018
50401.33805
44600.88164
39432.89518
34852.36238
30809.86273
27254.64834
24136.40298
21406.85631
19020.85831
16936.9471
15117.3706
13528.47291
12140.24915
10926.28976
9863.438768
8931.527103
8113.040323
7392.852194
6757.864482
6196.874692
5700.103997
5259.161132
4866.884563
4517.067661
4204.313875
3924.085822
3672.316485
3445.615586
3240.937315
3055.738842
2887.701368
2734.859576
2595.520315
186450.0859
184463.4296
180274.7745
174252.409
166711.1931
157957.7836
148315.1278
138085.1533
127551.654
116969.1773
106555.7668
96490.75801
86912.98082
77925.35949
69590.71356
61944.95145
54995.44721
48730.7726
43121.74667
38130.59831
33711.25127
29813.80613
26388.16556
23385.00211
20757.0003
18460.28238
16454.34751
14702.62626
13172.59755
11835.29729
10665.31152
9640.40176
8741.202262
7950.953985
7255.078599
6641.024682
6098.014982
5616.791044
5189.267508
4808.525748
4468.706257
4164.605185
3891.833423
3646.554146
3425.461991
3225.670277
3044.713912
2880.371358
2730.759199
2594.237796
182066.3561
180098.664
175951.6554
169998.3549
162544.3439
153907.0156
144400.4312
134332.3067
123983.0262
113602.9402
103406.5436
93570.01865
84226.93871
75472.73109
67369.1221
59946.87944
53210.41526
47145.10934
41721.85539
36900.39518
32634.59568
28875.39834
25573.20916
22679.27918
20147.34299
17934.64849
16001.9737
14313.94492
12839.11235
11549.59435
10420.87665
9431.548493
8562.982047
7799.058245
7125.86758
6531.403935
6005.277477
5538.541744
5123.569159
4753.677433
4423.184817
4127.200952
3861.428706
3622.248283
3406.432456
3211.247379
3034.286942
2873.433352
2726.875078
2593.022122
177747.6522
175800.3613
171700.9502
165817.9701
158456.5599
149940.0092
140578.5849
130676.4572
120514.3335
110339.8557
100363.3534
90754.71172
81642.92371
73120.62622
65244.34666
58040.05605
51510.90209
45639.31125
40394.13437
35735.92744
31617.5991
27990.26169
24805.16802
22014.65643
19573.65976
17440.48863
15576.99689
13949.03997
12526.16505
11281.4614
10191.39329
9235.394627
8395.576314
7656.410757
7004.504566
6428.320785
5918.027986
5464.940099
5061.684751
4701.981134
4380.269263
4091.899378
3832.726177
3599.27599
3388.433787
3197.595591
3024.41017
2866.856656
2723.190625
2591.86827
173496.6661
171573.4668
167523.3911
161712.1016
154452.1422
146056.5671
136844.7758
127114.4693
117143.6465
107176.6078
97419.67991
88037.76685
79156.86133
70863.56338
63209.15525
56219.02523
49890.72395
44206.44014
39133.97962
34632.04944
30654.42589
27153.24632
24079.98561
21387.88681
19033.03675
16974.96385
15176.73467
13605.39614
12231.53968
11029.13559
9975.51401
9050.864348
8237.978391
7522.049787
6890.178559
6331.250099
5835.751326
5395.497901
5003.311387
4653.151796
4339.733603
4058.514726
3805.579652
3577.523
3371.384421
3184.650706
3015.038611
2860.612277
2719.690126
2590.771474
37934.7929
33583.69375
29741.37997
26360.4152
23393.5012
20794.94897
18522.06838
16535.3602
14799.05147
13281.27026
11953.58516
10791.01467
9771.756737
8876.711324
8089.300848
7395.240341
6782.184722
6239.528055
5758.038707
5329.823478
4948.088718
4606.925237
4301.337252
4026.874229
3779.836254
3556.882353
3355.207737
3172.352278
3006.129764
2854.674454
2716.358635
2589.727182
)
;

boundaryField
{
    front_top
    {
        type            wedge;
    }
    front_middle
    {
        type            wedge;
    }
    front_bottom
    {
        type            wedge;
    }
    back_top
    {
        type            wedge;
    }
    back_middle
    {
        type            wedge;
    }
    back_bottom
    {
        type            wedge;
    }
    axis_top
    {
        type            symmetryPlane;
    }
    axis_middle
    {
        type            symmetryPlane;
    }
    axis_bottom
    {
        type            symmetryPlane;
    }
    wall_top
    {
        type            calculated;
        value           nonuniform 0();
    }
    wall_middle
    {
        type            calculated;
        value           uniform 2530.329233;
    }
    wall_bottom
    {
        type            calculated;
        value           nonuniform 0();
    }
    inlet
    {
        type            calculated;
        value           nonuniform 0();
    }
    outlet
    {
        type            calculated;
        value           nonuniform 0();
    }
    procBoundary4to3
    {
        type            processor;
        value           nonuniform List<scalar> 
51
(
169318.971
167418.5233
163417.9761
157683.2251
150526.8506
142260.0995
133197.9341
123642.7814
113865.7613
104107.6698
94570.61329
85416.3838
76763.74806
68694.48846
61259.6831
54476.57397
48344.63117
42841.40465
42841.40465
36792.65942
32585.95514
28873.24168
25607.67809
22742.5493
20233.19812
18038.11481
16119.06015
14441.45299
12974.47784
11690.62388
10565.83696
9579.044524
8711.894237
7948.55828
7275.216815
6679.966011
6152.626973
5684.393134
5267.578883
4895.706535
4563.091524
4264.87898
3996.838137
3755.366015
3537.25234
3339.814816
3160.643436
2997.64348
2849.019077
2713.181924
2588.731048
)
;
    }
    procBoundary4to5
    {
        type            processor;
        value           nonuniform List<scalar> 
51
(
284244.4021
282270.8616
278084.7782
271997.8036
264238.0243
255035.8796
244635.3516
233255.8109
221131.5944
208468.0621
195475.4322
182334.6791
169213.9506
156264.4142
143618.1008
131386.9967
119663.9574
108522.4389
98018.38081
88189.97761
79061.09455
70639.68242
62920.1607
55888.37161
49518.49266
43779.02333
38633.92532
34041.94819
29960.51109
26346.65778
23157.68796
20351.78781
17889.32719
15732.91804
13847.90894
11609.04855
11609.04855
10269.92597
9102.972629
8086.040066
7199.684465
6426.773744
5752.429597
5163.435719
4648.404534
4197.438441
3801.972656
3454.52268
3148.638423
2878.71024
2639.886324
)
;
    }
}


// ************************************************************************* //
