/*--------------------------------*- C++ -*----------------------------------*\
  =========                 |
  \\      /  F ield         | OpenFOAM: The Open Source CFD Toolbox
   \\    /   O peration     | Website:  https://openfoam.org
    \\  /    A nd           | Version:  7
     \\/     M anipulation  |
\*---------------------------------------------------------------------------*/
FoamFile
{
    version     2.0;
    format      ascii;
    class       volVectorField;
    location    "0.0024";
    object      U;
}
// * * * * * * * * * * * * * * * * * * * * * * * * * * * * * * * * * * * * * //

dimensions      [0 1 -1 0 0 0 0];

internalField   nonuniform List<vector> 
1167
(
(-6.287792358e-05 -2.566152225e-19 -0.004350758818)
(-0.0001623873176 -6.417642853e-19 -0.004347418505)
(-0.0002554307586 -7.327468379e-19 -0.00434017162)
(-0.00035128596 -1.343888046e-18 -0.004329313443)
(-0.0004443762939 -2.078322737e-18 -0.004315227703)
(-0.0005342346923 -2.723415109e-18 -0.004298168099)
(-0.0006207764614 -2.917134782e-18 -0.004278340082)
(-0.000703811505 -3.76221037e-18 -0.004255953486)
(-0.0007832090608 -4.064291755e-18 -0.004231207561)
(-0.0008588880055 -3.416723408e-18 -0.004204291019)
(-0.0009307998843 -4.021903788e-18 -0.004175378841)
(-0.000998922808 -3.1933403e-18 -0.004144633184)
(-0.001063257479 -3.243385952e-18 -0.004112201974)
(-0.001123823141 -3.235580969e-18 -0.004078217652)
(-0.001180653295 -3.201271333e-18 -0.004042796561)
(-0.001233792348 -2.967700331e-18 -0.004006038791)
(-0.001283292552 -2.797002943e-18 -0.003968027862)
(-0.001329211238 -2.767964301e-18 -0.003928830669)
(-0.001371608177 -2.828975227e-18 -0.003888497651)
(-0.001410543461 -2.57152528e-18 -0.00384706325)
(-0.001446075955 -2.517156205e-18 -0.003804546235)
(-0.001478261332 -2.424868401e-18 -0.003760949941)
(-0.001507151111 -2.314216992e-18 -0.003716263128)
(-0.001532791157 -2.19107414e-18 -0.003670459649)
(-0.001555221076 -2.391819708e-18 -0.003623499096)
(-0.001574472818 -2.487970854e-18 -0.003575325787)
(-0.00159056932 -2.701576209e-18 -0.003525868192)
(-0.001603523408 -2.693327868e-18 -0.003475037548)
(-0.001613335875 -2.657620012e-18 -0.003422725246)
(-0.001619992795 -2.287499927e-18 -0.003368799192)
(-0.001623462023 -2.556927974e-18 -0.003313098917)
(-0.00162368871 -2.508007986e-18 -0.00325542842)
(-0.001620588554 -2.448240073e-18 -0.003195545818)
(-0.001614038372 -2.450518218e-18 -0.003133148816)
(-0.001603862503 -2.482709113e-18 -0.003067853525)
(-6.49687549e-05 -3.877016075e-19 -0.004518550072)
(-0.0001678356123 -9.768705019e-19 -0.004514924154)
(-0.0002640073721 -1.130852739e-18 -0.004507034742)
(-0.0003630475084 -1.856391819e-18 -0.004495234443)
(-0.0004592433668 -9.819698236e-19 -0.004479931771)
(-0.0005520838474 -3.520645839e-18 -0.004461405853)
(-0.0006414820221 -3.780171004e-18 -0.004439887237)
(-0.0007272414111 -3.906992553e-18 -0.004415608603)
(-0.0008092252099 -3.333733919e-18 -0.004388792326)
(-0.0008873479426 -3.252988199e-18 -0.004359647892)
(-0.0009615578485 -3.346763562e-18 -0.004328371464)
(-0.001031831152 -3.19482373e-18 -0.004295143286)
(-0.001098167131 -2.981886719e-18 -0.004260127958)
(-0.001160583781 -3.038332862e-18 -0.004223472893)
(-0.001219113865 -3.055867996e-18 -0.004185307616)
(-0.001273801366 -2.947118312e-18 -0.004145743405)
(-0.001324698238 -2.804233248e-18 -0.00410487321)
(-0.001371861618 -2.506545428e-18 -0.004062771624)
(-0.001415351239 -2.814614436e-18 -0.004019495177)
(-0.001455227377 -2.657945453e-18 -0.003975082838)
(-0.001491548747 -2.530376976e-18 -0.003929556712)
(-0.001524371418 -2.459023563e-18 -0.00388292271)
(-0.001553747171 -2.446154963e-18 -0.003835170662)
(-0.001579722562 -2.452901858e-18 -0.00378627539)
(-0.001602337928 -2.660871625e-18 -0.00373619618)
(-0.001621625899 -2.55566205e-18 -0.003684876698)
(-0.001637610496 -2.869517195e-18 -0.003632244277)
(-0.00165030551 -2.607088701e-18 -0.003578208144)
(-0.001659712522 -2.873235516e-18 -0.003522656888)
(-0.001665817949 -2.202602579e-18 -0.003465454565)
(-0.001668589462 -2.314067081e-18 -0.003406435468)
(-0.001667970991 -2.258364027e-18 -0.003345396305)
(-0.001663875395 -2.35394402e-18 -0.00328208509)
(-0.001656174434 -2.213210378e-18 -0.003216185308)
(-0.001644683893 -2.266267947e-18 -0.003147292876)
(-0.001629142306 -1.911089542e-18 -0.003074882884)
(-0.001609179721 -2.276080365e-18 -0.002998260605)
(-0.001584272325 -2.261311183e-18 -0.002916490345)
(-0.001553678766 -2.013437593e-18 -0.002828294078)
(-0.001516354972 -1.777709979e-18 -0.002731914341)
(-0.001470851274 -1.349649399e-18 -0.002624945762)
(-0.001415206098 -1.299037617e-18 -0.002504155734)
(-0.001346860032 -1.605953422e-18 -0.002365325082)
(-0.001262610279 -2.001937486e-18 -0.002203134695)
(-0.001158610493 -1.38596413e-18 -0.002011100019)
(-0.001030410151 -6.59929246e-19 -0.001781531521)
(-0.0008730276523 -9.941951284e-19 -0.001505495663)
(-0.0006809651126 -8.404832719e-19 -0.001172809276)
(-0.0004479125829 -6.08369217e-19 -0.0007722041701)
(-0.0001660104556 -2.940305193e-19 -0.0002917469456)
(-6.701553714e-05 -6.099472682e-19 -0.004694296875)
(-0.0001731737943 -1.639810665e-18 -0.004690373501)
(-0.0002724144653 -4.689030428e-18 -0.004681818618)
(-0.000374579979 -2.619392312e-18 -0.004669041539)
(-0.0004738290954 -3.863047018e-18 -0.004652476009)
(-0.000569607349 -3.950693377e-18 -0.004632428238)
(-0.0006618261308 -3.935373965e-18 -0.004609153867)
(-0.0007502827781 -3.09954289e-18 -0.004582908402)
(-0.0008348344611 -3.361551038e-18 -0.004553938315)
(-0.0009153916058 -4.266026139e-18 -0.004522474063)
(-0.0009918987822 -3.237025246e-18 -0.004488731974)
(-0.001064329292 -3.42347398e-18 -0.004452911789)
(-0.001132680286 -2.799526481e-18 -0.004415194669)
(-0.001196967752 -2.804067507e-18 -0.004375742816)
(-0.001257222743 -2.683660782e-18 -0.004334698899)
(-0.001313487685 -2.942052294e-18 -0.004292185442)
(-0.001365813239 -3.000231772e-18 -0.004248304937)
(-0.001414255326 -2.906261429e-18 -0.004203139657)
(-0.001458872503 -2.377332276e-18 -0.004156752406)
(-0.001499724118 -2.381567578e-18 -0.004109187179)
(-0.001536868351 -2.440483233e-18 -0.004060469545)
(-0.001570360712 -2.411066902e-18 -0.004010608118)
(-0.001600252809 -2.734917342e-18 -0.003959594752)
(-0.001626591498 -2.478588807e-18 -0.003907405278)
(-0.001649417289 -2.650835809e-18 -0.003853999432)
(-0.001668763598 -2.840773855e-18 -0.003799320899)
(-0.0016846553 -2.909429685e-18 -0.003743296212)
(-0.001697107067 -2.922200233e-18 -0.003685833066)
(-0.001706121094 -2.798468287e-18 -0.003626817617)
(-0.00171168414 -2.220699028e-18 -0.003566110528)
(-0.00171376374 -2.447375264e-18 -0.003503541045)
(-0.001712302514 -2.305655682e-18 -0.0034388985)
(-0.001707210377 -2.1913225e-18 -0.003371920406)
(-0.001698353624 -2.155028407e-18 -0.003302275325)
(-0.001685539097 -2.043684489e-18 -0.003229538104)
(-0.001668491486 -2.058856589e-18 -0.00315315379)
(-0.001646820154 -1.623669311e-18 -0.003072385343)
(-0.001619971905 -2.263377604e-18 -0.002986238406)
(-0.00158716578 -2.158635576e-18 -0.002893356463)
(-0.001547309251 -1.695785948e-18 -0.002791884258)
(-0.001498902136 -1.404524427e-18 -0.002679308488)
(-0.00143994488 -1.358746142e-18 -0.002552300333)
(-0.001367874151 -1.768216156e-18 -0.002406590894)
(-0.001279541307 -1.390040907e-18 -0.00223689953)
(-0.001171232251 -1.284534374e-18 -0.002036908796)
(-0.001038719604 -1.138360012e-18 -0.001799259983)
(-0.0008773408458 -9.611989244e-19 -0.001515544045)
(-0.0006820112422 -7.540812843e-19 -0.001176323532)
(-0.0004469273655 -4.963241526e-19 -0.0007713175674)
(-0.0001648819397 -2.375390356e-19 -0.0002897993868)
(-6.902608509e-05 -8.948209907e-19 -0.004878125079)
(-0.0001784218965 -2.000473478e-18 -0.004873894071)
(-0.0002806835407 -2.669684942e-18 -0.00486465474)
(-0.0003859264666 -2.570905696e-18 -0.004850871763)
(-0.0004881884413 -2.913939588e-18 -0.004833004993)
(-0.000586872253 -3.759128742e-18 -0.004811388959)
(-0.0006818870771 -4.491084068e-18 -0.004786303116)
(-0.0007730251239 -3.000105902e-18 -0.004758027165)
(-0.000860137441 -3.517836183e-18 -0.004726830222)
(-0.0009431296908 -3.496872232e-18 -0.00469296538)
(-0.001021942983 -3.282240632e-18 -0.004656668318)
(-0.00109654689 -3.016318021e-18 -0.00461815722)
(-0.001166935138 -2.942816095e-18 -0.004577630345)
(-0.001233120951 -2.808391173e-18 -0.004535264865)
(-0.0012951327 -2.553237885e-18 -0.004491216355)
(-0.001353010315 -2.496322554e-18 -0.004445618432)
(-0.001406801925 -2.782230385e-18 -0.004398582889)
(-0.001456561008 -2.75926861e-18 -0.004350199911)
(-0.001502344316 -2.438171578e-18 -0.004300538805)
(-0.001544209361 -2.381858284e-18 -0.004249648544)
(-0.001582212959 -2.205219568e-18 -0.004197559127)
(-0.001616409506 -2.025501997e-18 -0.004144281975)
(-0.001646850211 -2.417708829e-18 -0.004089811609)
(-0.001673581421 -2.43524854e-18 -0.00403412532)
(-0.001696643923 -2.106960882e-18 -0.003977184209)
(-0.001716071724 -2.692285652e-18 -0.003918932374)
(-0.001731890265 -2.832270417e-18 -0.003859296097)
(-0.001744114984 -2.961459891e-18 -0.003798182243)
(-0.001752748756 -2.830956448e-18 -0.003735475088)
(-0.001757778745 -2.783074231e-18 -0.003671032167)
(-0.001759172193 -2.959419749e-18 -0.003604677817)
(-0.001756870263 -2.584197699e-18 -0.003536194048)
(-0.00175077978 -2.44107907e-18 -0.003465307653)
(-0.001740761323 -2.359058366e-18 -0.003391671638)
(-0.001726612444 -2.273233062e-18 -0.003314838713)
(-0.001708043476 -2.223327082e-18 -0.003234222711)
(-0.0016846428 -2.18122223e-18 -0.00314904311)
(-0.001655828026 -1.735827641e-18 -0.003058246156)
(-0.00162078014 -1.995740582e-18 -0.002960397931)
(-0.001578361939 -1.901512083e-18 -0.002853550079)
(-0.001527029609 -1.754492685e-18 -0.002735091845)
(-0.001464755635 -1.432141813e-18 -0.002601615664)
(-0.001388984057 -1.254946476e-18 -0.002448825388)
(-0.001296628588 -1.215267578e-18 -0.002271500345)
(-0.001184107053 -9.392304935e-19 -0.002063502199)
(-0.001047401939 -1.068597366e-18 -0.001817796623)
(-0.000882141134 -9.391197055e-19 -0.001526466069)
(-0.0006836076786 -1.437431602e-18 -0.001180751342)
(-0.0004464425005 -4.226748559e-19 -0.0007712506113)
(-0.0001640075665 -1.075315829e-19 -0.0002882939109)
(-7.101038701e-05 -9.370051639e-19 -0.005070189944)
(-0.0001836056364 -6.765348393e-19 -0.005065642872)
(-0.0002888548261 -1.969789129e-18 -0.005055703952)
(-0.0003971422143 -2.237336383e-18 -0.005040891736)
(-0.0005023917696 -1.529903473e-18 -0.005021693529)
(-0.0006039629661 -3.38651964e-18 -0.004998471237)
(-0.0007017628314 -3.931338114e-18 -0.004971527913)
(-0.0007955790425 -3.385205994e-18 -0.004941168107)
(-0.0008852567036 -3.348491245e-18 -0.004907682655)
(-0.0009706962319 -3.360347615e-18 -0.004871346421)
(-0.001051834298 -3.27779062e-18 -0.004832415401)
(-0.001128636509 -3.270237531e-18 -0.00479112534)
(-0.001201092519 -3.160415769e-18 -0.00474769084)
(-0.001269211522 -3.012018398e-18 -0.004702303713)
(-0.001333018082 -2.678608891e-18 -0.004655132317)
(-0.001392548503 -2.37182395e-18 -0.0046063213)
(-0.00144784751 -1.728545071e-18 -0.004555991784)
(-0.001498965578 -2.288163675e-18 -0.004504241842)
(-0.001545956366 -2.373963651e-18 -0.004451147371)
(-0.001588874952 -2.333559014e-18 -0.004396762979)
(-0.001627776055 -2.760994185e-18 -0.004341122981)
(-0.001662712748 -2.660901193e-18 -0.00428424287)
(-0.001693734981 -2.360941451e-18 -0.004226119786)
(-0.001720888634 -2.513357519e-18 -0.004166733765)
(-0.001744214674 -2.829479533e-18 -0.004106047596)
(-0.001763747151 -2.437654882e-18 -0.004044006473)
(-0.001779512133 -2.754086561e-18 -0.003980537357)
(-0.001791525871 -2.842108048e-18 -0.003915546794)
(-0.001799791885 -2.762380356e-18 -0.003848917756)
(-0.001804297688 -2.719247334e-18 -0.003780504965)
(-0.001805010071 -2.621916013e-18 -0.003710127976)
(-0.001801868559 -2.701614068e-18 -0.003637561452)
(-0.001794776619 -2.189678008e-18 -0.003562521239)
(-0.001783588895 -2.57746124e-18 -0.0034846444)
(-0.001768093372 -2.201955496e-18 -0.003403460748)
(-0.001747985751 -2.490777673e-18 -0.003318351853)
(-0.001722833298 -2.018658182e-18 -0.003228492633)
(-0.001692024814 -2.264035971e-18 -0.003132769763)
(-0.001654704898 -1.839209679e-18 -0.003029673702)
(-0.001609695573 -1.750181282e-18 -0.00291716847)
(-0.001555416109 -2.013319715e-18 -0.002792556716)
(-0.001489819972 -1.874219259e-18 -0.002652368348)
(-0.001410367339 -1.661143954e-18 -0.002492298675)
(-0.001314039021 -1.573113335e-18 -0.002307202569)
(-0.001197381633 -1.012840447e-18 -0.002091126617)
(-0.001056573559 -8.239725962e-19 -0.001837350373)
(-0.0008875065802 -6.021046785e-19 -0.001538414844)
(-0.0006857919713 -4.124854247e-19 -0.001186178318)
(-0.0004464620266 -2.75391375e-19 -0.0007720251722)
(-0.0001633776451 -1.570025795e-19 -0.0002872165558)
(-7.298050275e-05 2.89526457e-18 -0.005270684069)
(-0.0001887559483 3.452630231e-18 -0.005265813935)
(-0.0002969767893 3.283396728e-18 -0.005255164085)
(-0.0004082941657 -1.275009178e-18 -0.00523930554)
(-0.0005165236292 -2.293117264e-18 -0.005218752819)
(-0.0006209800533 -2.734293081e-18 -0.005193894063)
(-0.0007215693819 -2.921423728e-18 -0.005165056966)
(-0.000818074778 -3.764934687e-18 -0.005132569021)
(-0.0009103351819 -3.134849223e-18 -0.005096743767)
(-0.0009982458675 -3.943384467e-18 -0.005057875901)
(-0.001081738133 -2.871336507e-18 -0.005016241005)
(-0.001160772772 -3.148020955e-18 -0.004972092814)
(-0.001235334664 -3.159539327e-18 -0.004925661381)
(-0.001305428125 -3.24655009e-18 -0.004877152515)
(-0.001371072982 -3.212705283e-18 -0.004826747042)
(-0.001432301051 -2.834592219e-18 -0.004774600383)
(-0.00148915265 -2.48948266e-18 -0.004720842895)
(-0.001541674139 -2.339005187e-18 -0.004665580767)
(-0.00158991578 -2.377958967e-18 -0.004608896599)
(-0.001633929435 -2.365596329e-18 -0.004550850891)
(-0.001673767346 -2.160087228e-18 -0.004491483155)
(-0.001709480521 -2.283201832e-18 -0.004430813026)
(-0.001741117506 -2.303438112e-18 -0.004368841559)
(-0.001768723761 -2.366053579e-18 -0.004305551964)
(-0.001792339694 -2.178574406e-18 -0.00424090941)
(-0.001811999529 -2.138940319e-18 -0.004174861248)
(-0.001827730111 -2.367959135e-18 -0.00410733581)
(-0.00183954833 -2.432692913e-18 -0.004038239895)
(-0.001847458237 -2.023260551e-18 -0.00396745561)
(-0.001851447576 -2.445506608e-18 -0.003894835297)
(-0.001851482556 -2.850210539e-18 -0.003820193995)
(-0.001847500956 -2.428534606e-18 -0.003743299021)
(-0.001839402604 -2.768753523e-18 -0.003663854986)
(-0.001827035895 -2.481523251e-18 -0.003581482552)
(-0.001810178935 -2.223964353e-18 -0.003495688017)
(-0.001788512668 -2.617381416e-18 -0.003405820022)
(-0.001761583366 -2.438131708e-18 -0.003311008406)
(-0.001728751736 -2.315723811e-18 -0.003210080535)
(-0.001689127929 -2.244266211e-18 -0.003101453546)
(-0.001641497043 -2.277996191e-18 -0.002983009754)
(-0.001584247512 -2.48900024e-18 -0.002851975708)
(-0.001515321216 -2.224870345e-18 -0.002704833151)
(-0.001432200982 -2.412849104e-18 -0.002537284059)
(-0.001331937045 -2.174754816e-18 -0.002344269923)
(-0.001211199876 -1.621860645e-18 -0.002120023634)
(-0.001066349529 -1.110992828e-18 -0.001858125313)
(-0.0008935172343 -5.402079986e-19 -0.001551542134)
(-0.0006886074681 2.393134706e-19 -0.001192694733)
(-0.0004469978368 -9.487096209e-20 -0.0007736727654)
(-0.000162987703 4.088273119e-19 -0.0002865616217)
(-7.495022255e-05 4.006177794e-18 -0.005479844818)
(-0.0001939086319 4.47142803e-18 -0.005474646485)
(-0.0003051061251 3.668966432e-18 -0.005463278478)
(-0.000419460226 1.273147846e-18 -0.005446361816)
(-0.0005306811764 -5.590902194e-19 -0.005424437348)
(-0.000638039068 -2.142164677e-18 -0.005397919419)
(-0.0007414392825 -3.058163899e-18 -0.005367160342)
(-0.0008406605434 -3.756915082e-18 -0.005332508682)
(-0.0009355351379 -4.101349389e-18 -0.00529430029)
(-0.001025952793 -2.817639874e-18 -0.005252849623)
(-0.001111839545 -3.307355524e-18 -0.005208450191)
(-0.001193150267 -3.240475811e-18 -0.005161372458)
(-0.001269864101 -3.426043626e-18 -0.005111861835)
(-0.001341979878 -2.380661896e-18 -0.005060137573)
(-0.001409511781 -3.210352492e-18 -0.005006392352)
(-0.001472486171 -3.091649024e-18 -0.004950792245)
(-0.001530938373 -2.869978348e-18 -0.004893476757)
(-0.001584910249 -3.464957932e-18 -0.004834560144)
(-0.00163444762 -2.570719811e-18 -0.004774132156)
(-0.001679598901 -2.944669243e-18 -0.004712259586)
(-0.001720413258 -2.470719047e-18 -0.004648987401)
(-0.001756939309 -2.669545583e-18 -0.004584340426)
(-0.001789224337 -2.671681922e-18 -0.00451832426)
(-0.001817312573 -1.982433248e-18 -0.004450925871)
(-0.001841244008 -2.33016118e-18 -0.004382114009)
(-0.001861053252 -2.228417211e-18 -0.004311838946)
(-0.001876767607 -2.233948113e-18 -0.004240030899)
(-0.001888404461 -2.702476795e-18 -0.004166597642)
(-0.001895968373 -2.204253344e-18 -0.004091421011)
(-0.001899447159 -2.176792714e-18 -0.004014351342)
(-0.001898806313 -2.047536132e-18 -0.003935199469)
(-0.001893981747 -1.648581254e-18 -0.00385372542)
(-0.001884869438 -2.074831335e-18 -0.003769622391)
(-0.001871311292 -2.325286847e-18 -0.003682494213)
(-0.001853075245 -2.004492311e-18 -0.003591823105)
(-0.001829827303 -1.909869432e-18 -0.00349692424)
(-0.001801092963 -2.128340066e-18 -0.003396882223)
(-0.001766205783 -2.099078318e-18 -0.003290465951)
(-0.001724243621 -2.088208331e-18 -0.003176022138)
(-0.001673958472 -2.011839524e-18 -0.003051357556)
(-0.001613713427 -2.001501454e-18 -0.00291363254)
(-0.001541444859 -2.467904113e-18 -0.002759293124)
(-0.001454662702 -2.152908072e-18 -0.002584059856)
(-0.001350486809 -1.70072742e-18 -0.002382967895)
(-0.001225705242 -2.009529204e-18 -0.002150434278)
(-0.001076845536 -1.620697864e-18 -0.001880324393)
(-0.0009002557141 -1.319922091e-18 -0.001566000347)
(-0.0006921023493 -1.118702046e-18 -0.001200395006)
(-0.0004480677631 -3.397250804e-19 -0.0007762321293)
(-0.0001628370487 -9.201965437e-20 -0.000286329278)
(-7.693544382e-05 -4.088407032e-19 -0.005697963685)
(-0.0001991047067 -2.689682686e-18 -0.005692433758)
(-0.0003133070641 1.42755781e-18 -0.005680343626)
(-0.0004307276197 2.142169445e-18 -0.005662360989)
(-0.0005449731331 -2.447328081e-18 -0.005639052224)
(-0.0006552692506 -9.24096844e-19 -0.00561085902)
(-0.0007615201921 -2.396500263e-18 -0.005578155808)
(-0.0008635006707 -2.851967032e-18 -0.005541312534)
(-0.000961036218 -2.05109174e-18 -0.005500684357)
(-0.001054010099 -3.353422166e-18 -0.005456605807)
(-0.001142342574 -3.064448059e-18 -0.005409387469)
(-0.001225982307 -3.331037334e-18 -0.005359315227)
(-0.001304902101 -3.800095146e-18 -0.005306648863)
(-0.001379094368 -3.300651987e-18 -0.005251620461)
(-0.001448567089 -3.242020367e-18 -0.005194434155)
(-0.001513340701 -3.21115042e-18 -0.005135266335)
(-0.001573444811 -3.937872457e-18 -0.005074265615)
(-0.001628915891 -2.926605538e-18 -0.005011554393)
(-0.001679795318 -3.29717105e-18 -0.004947229732)
(-0.001726127386 -2.800635584e-18 -0.004881365175)
(-0.001767957925 -2.746000115e-18 -0.004814011973)
(-0.001805333291 -2.811503577e-18 -0.004745200709)
(-0.001838298758 -3.114002431e-18 -0.004674942188)
(-0.001866897506 -2.492618441e-18 -0.00460322823)
(-0.001891169244 -2.54001856e-18 -0.004530031988)
(-0.001911148621 -2.542290378e-18 -0.004455307168)
(-0.00192686318 -2.312076113e-18 -0.00437898671)
(-0.00193833078 -2.61193737e-18 -0.004300980205)
(-0.001945556501 -2.111880655e-18 -0.004221169831)
(-0.001948528149 -1.977303171e-18 -0.004139404304)
(-0.001947210399 -1.602831037e-18 -0.004055490444)
(-0.001941537044 -1.883499317e-18 -0.003969181051)
(-0.001931400019 -1.973359746e-18 -0.003880157851)
(-0.001916634539 -1.894539261e-18 -0.003788007538)
(-0.001896998185 -2.358054087e-18 -0.003692187858)
(-0.001872141979 -2.476702224e-18 -0.00359198016)
(-0.001841570948 -1.928487411e-18 -0.003486423952)
(-0.001804592521 -1.671997304e-18 -0.003374230893)
(-0.001760254419 -1.260112702e-18 -0.003253680525)
(-0.001707279131 -1.139236146e-18 -0.003122510274)
(-0.001644009194 -1.567347466e-18 -0.002977823347)
(-0.001568380269 -1.666796661e-18 -0.002816040585)
(-0.001477932157 -1.589313876e-18 -0.002632910061)
(-0.001369852944 -1.939374191e-18 -0.002423564296)
(-0.001241041127 -1.487611124e-18 -0.002182599716)
(-0.001088177978 -1.506418851e-18 -0.001904150844)
(-0.0009078071373 -4.307274481e-19 -0.001581944092)
(-0.000696328794 -8.536779333e-19 -0.001209378244)
(-0.0004496942807 -6.110904734e-19 -0.0007797484415)
(-0.0001629278837 -4.024690406e-19 -0.0002865244244)
(-7.895371331e-05 -5.078580523e-18 -0.005925394766)
(-0.0002043893954 0 -0.005919530712)
(-0.0003216501565 2.882038405e-18 -0.005906716315)
(-0.0004421915472 2.275216839e-18 -0.00588766222)
(-0.0005595186446 2.757685789e-18 -0.005862961143)
(-0.0006728119697 -3.179561119e-20 -0.005833080912)
(-0.0007819738012 -1.141342894e-18 -0.00579841598)
(-0.0008867745344 -1.559280112e-18 -0.005759357594)
(-0.0009870334059 -2.369077091e-18 -0.005716279057)
(-0.001082626994 -3.305367375e-18 -0.005669532215)
(-0.001173468601 -3.473478403e-18 -0.005619444425)
(-0.001259500432 -3.363198664e-18 -0.005566316489)
(-0.001340688477 -3.27114972e-18 -0.005510421393)
(-0.001417018285 -3.512626466e-18 -0.005452003297)
(-0.001488491239 -3.701343586e-18 -0.005391277229)
(-0.00155512095 -3.582788787e-18 -0.00532842923)
(-0.001616930903 -3.155446681e-18 -0.005263617193)
(-0.001673952184 -2.810255376e-18 -0.00519697173)
(-0.001726221081 -2.851924983e-18 -0.005128597741)
(-0.001773777609 -2.867170812e-18 -0.005058575761)
(-0.00181666433 -2.867882248e-18 -0.004986964077)
(-0.001854924667 -2.71325979e-18 -0.004913799555)
(-0.00188860224 -2.538126417e-18 -0.004839099258)
(-0.001917739082 -2.4237701e-18 -0.004762860518)
(-0.001942374197 -2.991229168e-18 -0.004685061538)
(-0.001962542252 -2.574848505e-18 -0.004605660612)
(-0.001978271153 -2.513581139e-18 -0.00452459417)
(-0.001989579229 -2.325969336e-18 -0.004441774205)
(-0.001996471919 -2.158453744e-18 -0.004357083778)
(-0.001998936903 -2.219977976e-18 -0.004270370473)
(-0.001996937926 -2.032393637e-18 -0.004181437342)
(-0.001990406434 -2.00837006e-18 -0.004090030004)
(-0.001979230124 -2.015293311e-18 -0.003995818667)
(-0.001963237318 -2.028063746e-18 -0.00389837271)
(-0.001942175153 -2.056020781e-18 -0.003797125192)
(-0.001915679728 -2.059082697e-18 -0.003691323523)
(-0.00188323603 -1.883830031e-18 -0.003579962537)
(-0.001844126495 -1.443683499e-18 -0.003461698256)
(-0.001797370857 -1.424965219e-18 -0.003334746562)
(-0.00174166538 -1.333645898e-18 -0.003196781494)
(-0.001675336055 -1.438407511e-18 -0.003044857231)
(-0.001596321399 -1.377833323e-18 -0.002875378059)
(-0.001502192385 -1.372645333e-18 -0.002684125785)
(-0.001390202594 -1.264618437e-18 -0.002466331344)
(-0.001257353154 -1.218005341e-18 -0.002216763647)
(-0.001100465394 -9.423521844e-19 -0.00192980915)
(-0.0009162593306 -7.943993628e-19 -0.001599529845)
(-0.0007013430222 -5.447500758e-19 -0.001219747922)
(-0.0004519040871 -1.86191846e-19 -0.0007842726382)
(-0.0001632648706 -1.489577485e-19 -0.0002871560179)
(-8.102376299e-05 7.830401128e-19 -0.006162561984)
(-0.0002098111652 3.366160621e-18 -0.006156361752)
(-0.0003302107024 6.303527065e-18 -0.006142821552)
(-0.0004539547592 3.541662467e-18 -0.006122692467)
(-0.0005744467659 3.269103111e-18 -0.006096593802)
(-0.0006908196014 5.145651636e-19 -0.00606501664)
(-0.0008029739755 -5.976255255e-19 -0.006028375627)
(-0.0009106758765 -1.929507534e-18 -0.005987080284)
(-0.001013737284 -2.052149073e-18 -0.005941522796)
(-0.001112028397 -3.051314251e-18 -0.005892070382)
(-0.001205455599 -3.750758564e-18 -0.005839065296)
(-0.001293953757 -3.463410834e-18 -0.00578282209)
(-0.001377481505 -3.481349512e-18 -0.005723626222)
(-0.001456017131 -3.466765623e-18 -0.00566173332)
(-0.001529554908 -3.484321059e-18 -0.005597368802)
(-0.001598101801 -3.269163824e-18 -0.005530728239)
(-0.001661675013 -3.664436966e-18 -0.005461978473)
(-0.00172029955 -2.920725011e-18 -0.005391258454)
(-0.001774006644 -3.078012266e-18 -0.005318681071)
(-0.001822832041 -3.037733646e-18 -0.005244334688)
(-0.001866814533 -2.393369144e-18 -0.00516828486)
(-0.001905995141 -2.958307656e-18 -0.005090575804)
(-0.001940415387 -2.840892294e-18 -0.005011231186)
(-0.001970115944 -2.832649189e-18 -0.004930254972)
(-0.001995135418 -2.865100942e-18 -0.004847631306)
(-0.002015508515 -3.086689482e-18 -0.004763323778)
(-0.002031263408 -2.984234708e-18 -0.004677273137)
(-0.002042418866 -2.781181335e-18 -0.004589394358)
(-0.002048980536 -2.602834872e-18 -0.004499571858)
(-0.002050935808 -2.504907684e-18 -0.004407652555)
(-0.002048247377 -2.176165299e-18 -0.004313436086)
(-0.002040844224 -2.170434981e-18 -0.004216661047)
(-0.002028609656 -2.047192822e-18 -0.004116986059)
(-0.002011364911 -2.028930628e-18 -0.004013963072)
(-0.001988846596 -2.055960579e-18 -0.003907000382)
(-0.001960676039 -2.168546927e-18 -0.003795311573)
(-0.001926318688 -2.037024396e-18 -0.003677847495)
(-0.001885033158 -1.840309102e-18 -0.003553210372)
(-0.001835813255 -1.758653146e-18 -0.003419556024)
(-0.001777331956 -1.582894536e-18 -0.003274500716)
(-0.001707901952 -1.865353864e-18 -0.003115056671)
(-0.001625467117 -1.235142335e-18 -0.002937618494)
(-0.001527629811 -7.262590634e-19 -0.002738005976)
(-0.001411705379 -1.290989629e-18 -0.002511546957)
(-0.001274789005 -2.002671204e-18 -0.002253173728)
(-0.001113828893 -1.161486834e-18 -0.001957507342)
(-0.0009257032201 -9.256554472e-19 -0.001618917797)
(-0.0007072045476 -1.525998255e-18 -0.001231611289)
(-0.000454727291 -4.855824475e-19 -0.0007898602205)
(-0.0001638546408 -2.236609944e-19 -0.0002882361837)
(-8.316544465e-05 2.107415248e-18 -0.006409967188)
(-0.0002154211139 1.170145381e-18 -0.006403428598)
(-0.0003390689867 5.415057666e-18 -0.006389161632)
(-0.0004661274345 3.153320559e-18 -0.006367955235)
(-0.0005898949229 1.145887521e-19 -0.006340453409)
(-0.0007094548389 1.523671647e-18 -0.006307169427)
(-0.000824706137 -2.443203411e-19 -0.006268537993)
(-0.0009354106812 -1.140349676e-18 -0.006224984703)
(-0.001041372749 -1.62829639e-18 -0.006176918368)
(-0.001142455348 -3.005703335e-18 -0.006124721896)
(-0.001238557873 -2.762952111e-18 -0.00606875068)
(-0.001329607741 -3.100876378e-18 -0.006009331682)
(-0.001415556051 -3.474010175e-18 -0.005946761878)
(-0.001496373656 -3.352393708e-18 -0.005881307667)
(-0.001572047646 -3.212299791e-18 -0.005813204386)
(-0.001642577917 -2.163873776e-18 -0.005742656766)
(-0.001707975052 -3.076583625e-18 -0.005669840415)
(-0.001768258422 -3.044519979e-18 -0.005594902846)
(-0.001823453982 -2.898442256e-18 -0.005517965226)
(-0.001873593028 -2.925806752e-18 -0.005439124129)
(-0.001918711061 -2.979042952e-18 -0.005358453149)
(-0.001958846243 -2.864451703e-18 -0.005276004282)
(-0.001994038054 -2.801762837e-18 -0.005191808792)
(-0.002024326234 -3.065031664e-18 -0.005105878118)
(-0.002049749012 -3.214628933e-18 -0.005018203117)
(-0.002070340931 -3.389628398e-18 -0.00492875315)
(-0.002086130303 -3.440981095e-18 -0.004837474103)
(-0.00209713636 -3.491935984e-18 -0.004744284747)
(-0.002103364953 -3.839842291e-18 -0.004649071425)
(-0.002104803161 -2.580778972e-18 -0.004551680751)
(-0.00210141246 -3.054269096e-18 -0.004451909197)
(-0.00209311923 -2.682359843e-18 -0.004349488565)
(-0.002079802262 -2.980855037e-18 -0.004244065939)
(-0.002061275601 -2.577866383e-18 -0.004135175825)
(-0.002037265299 -2.465394822e-18 -0.004022201752)
(-0.002007378098 -2.42504141e-18 -0.00390432381)
(-0.001971060484 -2.35465834e-18 -0.003780449764)
(-0.001927548406 -2.097745831e-18 -0.003649130002)
(-0.00187581163 -1.847585282e-18 -0.003508463863)
(-0.001814502365 -1.819621193e-18 -0.00335601496)
(-0.001741922513 -1.379059347e-18 -0.003188759393)
(-0.001656022645 -1.539315769e-18 -0.003003087241)
(-0.001554435521 -1.717607342e-18 -0.002794858448)
(-0.001434533996 -1.150858982e-18 -0.002559494749)
(-0.001293498857 -4.519940597e-19 -0.002292081922)
(-0.001128391963 -1.58199759e-18 -0.001987457236)
(-0.0009362324318 -5.284540438e-19 -0.00164027184)
(-0.0007139760559 -6.4844282e-19 -0.001245080161)
(-0.0004581970744 8.147795665e-20 -0.0007965711549)
(-0.0001647054315 7.339114672e-20 -0.0002897795923)
(-8.539965233e-05 4.291039222e-19 -0.006668199189)
(-0.0002212737149 6.353448135e-19 -0.00666132009)
(-0.0003483107965 1.979051002e-18 -0.006646325317)
(-0.0004788262543 2.283650899e-18 -0.006624037735)
(-0.000606008269 1.882428514e-18 -0.006595124698)
(-0.0007288897034 1.771948398e-18 -0.006560122463)
(-0.0008473668855 -1.095940518e-18 -0.006519482841)
(-0.0009611971063 -1.945496023e-18 -0.006473648055)
(-0.001070177416 -2.386093739e-18 -0.006423040813)
(-0.001174162895 -5.037599157e-19 -0.00636805779)
(-0.001273045433 -2.915305458e-18 -0.006309067311)
(-0.001366745113 -2.995184553e-18 -0.006246407873)
(-0.001455205603 -3.119727311e-18 -0.006180386984)
(-0.001538390253 -3.129256719e-18 -0.006111280689)
(-0.001616278488 -2.931107159e-18 -0.006039333608)
(-0.001688863387 -3.625669839e-18 -0.005964759636)
(-0.001756149365 -3.255964424e-18 -0.005887743142)
(-0.001818149806 -3.473338721e-18 -0.005808440266)
(-0.00187488565 -3.045027968e-18 -0.005726980677)
(-0.001926384093 -3.623546391e-18 -0.005643469627)
(-0.001972677003 -3.476789145e-18 -0.00555798923)
(-0.002013800073 -3.279823434e-18 -0.005470600079)
(-0.002049791211 -3.308606013e-18 -0.005381341771)
(-0.002080688893 -3.132898694e-18 -0.005290233619)
(-0.002106530911 -2.749947263e-18 -0.005197274184)
(-0.002127351883 -3.608139651e-18 -0.005102439505)
(-0.002143180456 -3.812291533e-18 -0.005005681157)
(-0.002154036254 -3.394004592e-18 -0.004906922274)
(-0.002159925288 -3.739128434e-18 -0.004806051708)
(-0.0021608343 -3.106567409e-18 -0.004702916172)
(-0.00215672341 -3.593438756e-18 -0.004597309224)
(-0.002147516275 -3.314943753e-18 -0.004488956054)
(-0.002133087045 -3.358622863e-18 -0.004377492336)
(-0.002113242525 -3.376961756e-18 -0.004262435222)
(-0.002087698237 -3.218124543e-18 -0.004143143597)
(-0.002056046561 -3.322360093e-18 -0.004018764457)
(-0.002017715601 -2.735003615e-18 -0.003888163535)
(-0.001971919732 -2.45198311e-18 -0.003749841492)
(-0.001917606358 -2.188787e-18 -0.003601844646)
(-0.001853409018 -2.099073907e-18 -0.003441688615)