/*--------------------------------*- C++ -*----------------------------------*\
  =========                 |
  \\      /  F ield         | OpenFOAM: The Open Source CFD Toolbox
   \\    /   O peration     | Website:  https://openfoam.org
    \\  /    A nd           | Version:  7
     \\/     M anipulation  |
\*---------------------------------------------------------------------------*/
FoamFile
{
    version     2.0;
    format      ascii;
    class       volTensorField;
    location    "0.0003";
    object      grad(U);
}
// * * * * * * * * * * * * * * * * * * * * * * * * * * * * * * * * * * * * * //

dimensions      [0 0 -1 0 0 0 0];

internalField   nonuniform List<tensor> 
1167
(
(-0.416657844 -4.649965547e-15 0.01100152109 5.017454921e-15 -0.6905272742 0 0.06150698692 -7.745719818e-15 1.145077744)
(-0.5526491533 -8.358204831e-16 0.01792936141 4.572381064e-15 -0.5990749722 0 0.1588009603 -2.498060046e-14 1.142778035)
(-0.4830647286 5.919979517e-15 0.01255296364 -3.397063057e-15 -0.8009491539 0 0.06986800573 1.932633997e-15 1.325965153)
(-0.6407898383 6.031224437e-16 0.02054124894 -6.965384012e-15 -0.6946779452 0 0.1803131205 6.771771706e-15 1.323406978)
(-0.6331238174 3.713544986e-15 0.03134464517 -4.295184562e-15 -0.6620716983 0 0.2839228104 -6.087004108e-15 1.31987216)
(-0.6446589629 1.000660562e-14 0.04625515602 -2.102763011e-15 -0.6572043413 6.728841635e-14 0.391371613 -1.253486977e-14 1.313993444)
(-0.6394232395 -9.747798716e-15 0.06119731827 -5.044682893e-15 -0.6538658754 5.380995086e-14 0.4963742425 -1.15968537e-14 1.30609655)
(-0.6321547905 -1.994145473e-14 0.07726732009 0 -0.650578255 0 0.5986494491 -2.16128552e-15 1.296166903)
(-0.6234515909 -5.927751547e-15 0.09478598091 2.461483205e-15 -0.6471927832 0 0.6982024764 1.776844041e-15 1.284116256)
(-0.6127880524 -6.678787096e-15 0.1138018316 1.096709106e-15 -0.6435069726 -3.50946914e-14 0.7948828148 7.014970507e-15 1.269865545)
(-0.6001843041 -4.1332916e-15 0.1343765854 3.979774893e-15 -0.6394204938 0 0.8885955019 3.644765299e-15 1.253324317)
(-0.5856187511 -6.310358458e-16 0.1565521423 3.661080488e-15 -0.6348833644 -2.92886439e-14 0.9792725551 6.257147956e-15 1.234384243)
(-0.5690059145 -2.988181108e-15 0.1803233754 3.405561997e-15 -0.6298618773 0 1.066843422 -3.992443879e-15 1.212934238)
(-0.5502599422 -1.219089739e-15 0.2056471715 3.19679358e-15 -0.6243298233 0 1.151253314 4.158794699e-15 1.18887145)
(-0.5292919152 1.092514612e-16 0.2324619932 1.511804004e-15 -0.6182670248 -2.418886407e-14 1.232454496 7.253703918e-15 1.162081411)
(-0.506002813 7.504547791e-16 0.2606764664 2.878148666e-15 -0.6116555898 0 1.310386356 5.387844305e-15 1.132454252)
(-0.4803013928 -1.487660628e-15 0.2901793845 2.754727817e-15 -0.6044794898 0 1.384998784 5.649480144e-15 1.099886446)
(-0.4520902292 -2.457686113e-17 0.3208479415 0 -0.5967247656 0 1.456225937 7.705982255e-15 1.064266394)
(-0.4212744742 1.041747167e-15 0.3525365175 2.558151318e-15 -0.5883777879 0 1.523996677 4.964481665e-15 1.025494464)
(-0.3877594813 -3.074959928e-16 0.3850908928 1.239668884e-15 -0.5794266545 0 1.588225434 3.279043157e-15 0.9834621763)
(-0.3514503602 1.921071717e-15 0.4183418178 1.205378332e-15 -0.5698596232 -9.643026657e-15 1.648808918 4.007012774e-15 0.9380725357)
(-0.312253825 3.687017349e-15 0.4521079186 2.350875321e-15 -0.5596662629 0 1.705625577 1.716121195e-15 0.8892216666)
(-0.2700775656 2.108793155e-15 0.4861938109 3.44769163e-15 -0.5488363771 9.193844347e-15 1.758525596 -8.005118683e-17 0.8368143959)
(-0.2248324252 1.760874541e-15 0.5203894403 2.252511592e-15 -0.5373609035 0 1.807333429 8.785905853e-16 0.7807537322)
(-0.1764334369 7.415419024e-15 0.5544674765 0 -0.5252311851 0 1.851836805 1.13713291e-15 0.7209516552)
(-0.1248028096 5.435760293e-15 0.5881792071 -1.08842756e-15 -0.5124397665 -8.707420477e-15 1.891786464 3.997171322e-15 0.6573244016)
(-0.06987341906 1.340137271e-15 0.6212541416 0 -0.4989799346 0 1.926889271 2.512404277e-15 0.5898042749)
(-0.01159492709 4.768440345e-15 0.6533950682 0 -0.4848465448 0 1.956806407 1.788026134e-15 0.5183360946)
(0.0500611342 5.455150127e-15 0.6842746406 0 -0.470035892 0 1.981148533 6.43698624e-16 0.4428912675)
(0.1150931139 6.143688061e-15 0.7135296513 0 -0.4545465685 0 1.999473745 5.403517575e-16 0.3634692408)
(0.1834602369 5.649772202e-15 0.7407589282 0 -0.4383796314 0 2.011286879 3.076259734e-16 0.2801145003)
(0.25507005 4.640416485e-15 0.765521671 0 -0.421539606 0 2.016041478 -9.888484037e-17 0.1929205473)
(0.3297680967 6.929285224e-15 0.7873392095 0 -0.404035003 0 2.013145267 -8.179331232e-16 0.1020499656)
(0.4073224338 3.208829495e-15 0.8056950752 1.009785311e-15 -0.3858793871 8.078282489e-15 2.001965955 -1.973259973e-15 0.00774174769)
(0.4874134701 3.221131271e-16 0.820047907 0 -0.3670922108 0 1.981848033 -2.267153661e-15 -0.08967014569)
(0.5696203136 2.227980188e-15 0.8298396637 1.002395304e-15 -0.3476998284 8.019162433e-15 1.952126223 -2.497638289e-15 -0.1897454744)
(0.653409348 1.632881339e-15 0.834517437 0 -0.3277364321 0 1.912156868 -2.003983993e-15 -0.2919281722)
(0.7381309289 2.206657231e-15 0.8335518022 -1.497757626e-15 -0.3072450203 0 1.861341718 -1.933370137e-15 -0.3955373594)
(0.8230178418 2.667768532e-15 0.8264610535 -9.977337388e-16 -0.2862779688 0 1.799168097 -2.217534884e-15 -0.4997683334)
(0.9071947674 2.746552743e-15 0.8128399193 0 -0.2648976125 7.981468632e-15 1.725248316 -2.897403274e-15 -0.6036993416)
(0.9896914241 1.199635416e-15 0.7923794725 -9.983150473e-16 -0.2431761281 0 1.639360453 -2.673206661e-15 -0.7063078865)
(1.069467144 2.279345384e-15 0.7648814052 -4.99796504e-16 -0.2211954087 1.599348813e-14 1.541494753 -2.177848584e-15 -0.8064946075)
(1.145445282 1.857248264e-15 0.7302645766 -1.001486162e-15 -0.1990460387 0 1.43188345 -7.36257467e-16 -0.9031116322)
(1.216548454 -7.75034787e-16 0.6885626581 -1.003966631e-15 -0.1768261053 0 1.311029923 -7.151273688e-16 -0.9950083258)
(1.281737144 -5.266148682e-16 0.6399098583 -5.035047853e-16 -0.1546393503 0 1.179716623 -4.029425464e-16 -1.08106272)
(1.340045519 -9.331205468e-16 0.5845224606 -5.052963723e-16 -0.132593225 0 1.039000226 -3.174547152e-16 -1.160226067)
(1.390617681 4.538388103e-16 0.522672685 -7.610222846e-16 -0.110796572 -8.117571036e-15 0.8901821765 8.020056331e-17 -1.231545309)
(1.432732383 1.659602073e-15 0.4546537759 -5.096513787e-16 -0.08935731356 0 0.7347673034 1.693889574e-16 -1.294184566)
(1.465692636 1.078917243e-15 0.3807577027 -7.682971186e-16 -0.06838020174 0 0.5744232576 -7.784604968e-17 -1.347422455)
(1.488708336 1.196803313e-15 0.3013322773 -7.724718513e-16 -0.04796814981 0 0.4109579595 -1.692326361e-16 -1.390660386)
(1.501719402 1.667421628e-15 0.2167742403 -7.122425946e-16 -0.0282232565 0 0.2461466578 -2.58488565e-16 -1.423446973)
(1.506629791 9.912940619e-16 0.08636850284 -7.004063803e-16 -0.009227446609 4.169861241e-15 0.08153276598 -2.677952562e-16 -1.445427765)
(-0.5570244831 -1.059247437e-14 0.01424968128 1.034989862e-14 -0.9240155491 0 0.07875439978 1.017593003e-14 1.527490309)
(-0.7389588235 9.070287791e-15 0.02342401742 9.431809797e-15 -0.8011830878 -1.509089568e-13 0.2031570464 3.284350791e-14 1.524650609)
(-0.7303538812 1.729494319e-14 0.03579682561 -2.908049561e-15 -0.7635664715 0 0.3198632082 3.650813061e-14 1.520664206)
(-0.7438109137 8.174998319e-15 0.05274677395 -4.27101953e-15 -0.7580424202 0 0.4409322903 1.528018107e-14 1.514069062)
(-0.7379275343 -1.099529711e-14 0.06969074407 -3.415496508e-15 -0.7542440078 0 0.5591965687 1.701214564e-14 1.505247784)
(-0.7298686304 -1.909454907e-14 0.08788987083 0 -0.750534332 0 0.6743897055 7.261115986e-15 1.494192492)
(-0.7202481421 -1.297023871e-14 0.1076903821 2.499816382e-15 -0.7467398826 0 0.7865226666 4.25190197e-15 1.480830953)
(-0.7084919276 -5.673359556e-15 0.1291507299 4.455153517e-15 -0.7426281815 0 0.8954465686 8.812215679e-15 1.465096962)
(-0.6946493851 5.881065989e-16 0.1523559199 4.041752733e-15 -0.7380888423 0 1.001077241 3.139002215e-15 1.446901034)
(-0.6787035922 6.853422615e-15 0.1773624612 1.859047618e-15 -0.7330678643 0 1.103353089 7.839812675e-15 1.426139682)
(-0.6605769816 -1.729298752e-15 0.2041723566 1.729298752e-15 -0.7275289841 2.766878003e-14 1.202229579 -7.952432252e-16 1.402715628)
(-0.6401896935 -9.570112669e-15 0.2327568523 3.246577894e-15 -0.7214460938 0 1.297687632 1.589167118e-15 1.376521031)
(-0.617444107 -8.426419633e-16 0.2630658103 3.070695268e-15 -0.7147988145 0 1.389702064 7.560826511e-15 1.347439142)
(-0.5922406319 7.107614197e-16 0.2950159101 1.461485329e-15 -0.7075685782 0 1.478257975 3.560490879e-15 1.315363243)
(-0.5644768669 -1.947957604e-15 0.3285103482 1.398813876e-15 -0.6997396058 0 1.563344554 3.562398589e-15 1.280171663)
(-0.5340414575 1.996768125e-16 0.3634335968 1.345191158e-15 -0.6912965539 0 1.64493789 3.01526393e-15 1.241746269)
(-0.5008215767 2.554859234e-15 0.3996557767 0 -0.6822250303 0 1.72301946 3.54812429e-15 1.199965838)
(-0.464696622 9.934095655e-16 0.4370341289 0 -0.6725108861 0 1.797546422 2.159580433e-15 1.154697971)
(-0.4255417825 2.615664115e-15 0.4754137691 0 -0.6621401195 0 1.868471734 -5.481295113e-16 1.105813196)
(-0.3832241848 4.292345397e-15 0.5146289834 0 -0.6510987905 0 1.935716593 1.118764902e-15 1.053166624)
(-0.3376039454 2.523457836e-15 0.5544991462 0 -0.6393726814 0 1.999184776 4.350437988e-16 0.9966143433)
(-0.2885348072 1.720160758e-15 0.5948288235 0 -0.6269474091 0 2.058738946 1.278254487e-15 0.9359966456)
(-0.2358617126 1.827600992e-15 0.635403249 0 -0.6138082439 0 2.114208756 8.288908769e-16 0.8711543179)
(-0.1794262495 4.361061098e-15 0.6759819616 0 -0.5999400677 0 2.16537013 5.21918484e-15 0.8019159615)
(-0.1190677051 5.533415951e-15 0.716297274 0 -0.5853276261 0 2.211948288 3.696390546e-15 0.7281124797)
(-0.05462795278 6.096191526e-15 0.7560476484 0 -0.5699555277 0 2.253602757 2.579494051e-15 0.6495742029)
(0.0140435022 6.072087292e-15 0.7948886221 -1.063966014e-15 -0.5538087107 -1.702345623e-14 2.289922902 2.843249556e-15 0.5661394155)
(0.08708136467 5.949209794e-15 0.8324242211 0 -0.5368726416 0 2.320414538 2.070186812e-15 0.4776637669)
(0.1645911966 6.742680949e-15 0.8682001254 0 -0.519134041 0 2.344498621 4.336887622e-15 0.3840290793)
(0.2466364333 5.860215281e-15 0.901697522 0 -0.50058157 0 2.361498919 1.028762958e-15 0.2851609869)
(0.3332220821 6.140308676e-15 0.9323264614 0 -0.4812068469 0 2.370642432 3.768372689e-16 0.1810461158)
(0.4242727232 4.976331712e-15 0.9594297463 0 -0.4610055065 0 2.371058942 1.59031923e-15 0.07175144232)
(0.5196125312 3.202477733e-15 0.9822790038 1.021282217e-15 -0.4399787119 8.170257735e-15 2.361781881 -1.303223808e-15 -0.04255008865)
(0.6189347396 1.74273846e-15 1.000093517 0 -0.418134492 0 2.341767053 -1.151958097e-15 -0.1615545309)
(0.721779157 1.115789083e-15 1.012054624 0 -0.3954898374 0 2.309911954 -1.2640882e-15 -0.2847967009)
(0.8275111698 1.861741612e-15 1.0173324 0 -0.3720721729 0 2.265086173 -1.363797966e-15 -0.4116261761)
(0.935295512 2.723167555e-15 1.015122613 -1.013271648e-15 -0.3479213936 0 2.20618253 -1.207656944e-15 -0.5411917855)
(1.044093877 2.339114993e-15 1.004686478 -1.013220707e-15 -0.3230915006 0 2.132172973 -8.302605009e-16 -0.6724189515)
(1.152656602 2.016832924e-15 0.9853929539 -1.01386201e-15 -0.2976518325 0 2.042183512 -4.987019307e-16 -0.8040203648)
(1.259544213 1.205502348e-15 0.9567494015 -1.015159872e-15 -0.2716882389 0 1.935575023 -9.599659172e-16 -0.9345017667)
(1.363165244 -1.872266142e-16 0.9184445578 -1.525623764e-15 -0.2453029454 0 1.812033137 6.257475001e-17 -1.062202513)
(1.461823941 -4.639983875e-16 0.8703560406 -1.019601607e-15 -0.2186140572 0 1.671645299 -5.574909367e-16 -1.185346844)
(1.553792217 -1.65288589e-16 0.8125505077 -1.022691934e-15 -0.1917538294 0 1.514976211 -9.06959475e-16 -1.30211389)
(1.637387612 -5.662860978e-17 0.7452657235 -1.02633091e-15 -0.1648661507 0 1.343097673 -7.439063026e-16 -1.410716044)
(1.711062393 9.359019141e-17 0.6688665378 -5.152492258e-16 -0.1381030716 0 1.157591211 -2.879866219e-15 -1.509478882)
(1.773451486 6.169106437e-16 0.5837875523 -5.175882828e-16 -0.1116206161 0 0.9604931024 -9.352202755e-16 -1.596898961)
(1.823256525 6.260891095e-16 0.4904907813 -5.201746435e-16 -0.08557514736 0 0.7542430336 -1.590694112e-16 -1.671673675)
(1.859314151 7.680302404e-16 0.3895576695 -7.845017119e-16 -0.06012346045 0 0.5416103295 4.862556238e-16 -1.732722009)
(1.881641051 8.788668206e-16 0.2815993047 -7.233344927e-16 -0.03541808311 0 0.325352246 1.308902072e-15 -1.779243616)
(1.890807454 4.103618368e-16 0.1126219737 -6.947717658e-16 -0.01158213485 0 0.1079144851 1.421632508e-15 -1.81060051)
(-0.6387505556 -2.248320003e-14 0.0161033052 2.627773189e-14 -1.060106318 0 0.0880759251 3.28157272e-15 1.750249743)
(-0.847435539 -1.872945553e-14 0.02661118997 3.113079185e-14 -0.9189060415 0 0.2270960041 1.110456731e-14 1.747098059)
(-0.8378095618 2.172897476e-14 0.04072691885 1.919671569e-14 -0.8757390428 -9.450690803e-14 0.3575097731 3.81800995e-14 1.742585165)
(-0.8533740913 2.487518955e-14 0.05990090237 4.337538373e-15 -0.869491763 0 0.492828938 2.996728147e-14 1.735171363)
(-0.8467445223 -1.891859321e-15 0.07901460224 0 -0.8651749131 0 0.6249317853 3.617126146e-14 1.725304332)
(-0.8378047038 -8.868141991e-15 0.09950156672 2.918051863e-15 -0.8609903969 0 0.7535787181 1.357206978e-14 1.712992233)
(-0.8271761368 -7.85921533e-15 0.1217326585 5.077499367e-15 -0.8567375685 0 0.8787889443 6.165646492e-15 1.698185223)
(-0.8142357376 -5.149757366e-15 0.1457829722 4.524540148e-15 -0.8521523073 0 1.000408874 -8.426008936e-15 1.68082909)
(-0.7990632433 -3.581592018e-15 0.1717607655 2.052350434e-15 -0.8471137606 0 1.118356036 4.142767761e-15 1.66084722)
(-0.7816603425 3.818408858e-15 0.1997293374 1.888001289e-15 -0.8415635315 -3.020802063e-14 1.232583339 7.018233717e-15 1.638156405)
(-0.7619716776 2.776698289e-15 0.2297044894 5.268694963e-15 -0.8354650433 0 1.343083723 4.884559797e-15 1.612674979)
(-0.739919951 -9.864055969e-15 0.2616795504 3.297141607e-15 -0.8287938063 0 1.449865108 2.648906764e-15 1.584298402)
(-0.7154123004 -1.583623287e-15 0.2956099034 4.677779555e-15 -0.8215296659 2.494815763e-14 1.552940417 -1.698383086e-15 1.552924422)
(-0.6883558541 4.786117373e-15 0.3314294947 0 -0.8136558656 0 1.652349452 2.396614239e-15 1.518448201)
(-0.6586411561 -8.989732179e-16 0.3690590103 0 -0.8051575279 0 1.748123668 3.405090142e-15 1.480747137)
(-0.6261541705 -3.735543957e-17 0.4083970588 4.09842537e-15 -0.7960197736 0 1.840306498 2.068039901e-15 1.439704068)
(-0.5907686656 2.063867417e-15 0.4493365078 0 -0.7862286776 0 1.928933491 3.17884533e-15 1.395180392)
(-0.5523473965 4.352673908e-15 0.4917560895 0 -0.7757692623 0 2.014037511 2.936051474e-15 1.347037353)
(-0.5107401706 3.006056018e-15 0.5355268584 1.243215413e-15 -0.7646266676 1.989144661e-14 2.095636605 5.587477621e-15 1.295110732)
(-0.4657805406 2.618832805e-15 0.5805109705 0 -0.7527845452 0 2.173732693 2.211725791e-15 1.23923151)
(-0.4172859076 1.889080056e-15 0.6265601158 2.370610266e-15 -0.7402259002 9.482441065e-15 2.248302393 2.964692172e-15 1.179202876)
(-0.3650528023 1.318154194e-15 0.6735132799 0 -0.7269319427 0 2.319291718 3.605316619e-15 1.114815592)
(-0.3088578366 2.344033942e-15 0.7211909018 0 -0.7128825678 0 2.386604486 3.606791789e-15 1.045830698)
(-0.2484539351 1.96892381e-15 0.7693911691 0 -0.6980556129 0 2.450096593 1.222776411e-15 0.9719931864)
(-0.183577511 4.770172402e-15 0.8178781001 -2.213256248e-15 -0.6824271205 -8.853024993e-15 2.509561189 2.241187328e-15 0.8930167658)
(-0.1139435916 5.86674736e-15 0.8663822688 0 -0.6659712704 0 2.564719035 1.496276959e-15 0.8085999485)
(-0.03924953693 6.168767224e-15 0.9145805871 0 -0.6486603287 0 2.615200644 2.296531356e-15 0.718421673)
(0.04081481646 4.043932841e-15 0.9620879408 0 -0.6304648574 0 2.660537018 1.1603129e-15 0.6221474378)
(0.1265598931 7.246599486e-15 1.008441012 -1.060983396e-15 -0.61135422 -8.48786717e-15 2.700135902 1.754099591e-15 0.5194403679)
(0.2182834741 1.015846281e-14 1.053081392 0 -0.5912970451 0 2.73326668 1.2326938e-15 0.4099781249)
(0.3162461808 6.066241327e-15 1.095349753 0 -0.5702621636 0 2.759046526 3.97130792e-16 0.2934671636)
(0.4206562893 5.793247439e-15 1.134468119 0 -0.5482199484 0 2.776418802 -2.020243037e-15 0.1696728836)
(0.5316315821 4.365508678e-15 1.169537355 0 -0.5251434617 0 2.784140982 1.50581355e-16 0.03844663109)
(0.6491563401 2.167674739e-15 1.199530321 0 -0.5010108832 0 2.780782685 -5.341681048e-16 -0.1002300787)
(0.7730471356 1.954083367e-15 1.223306281 0 -0.4758077213 0 2.764721795 -2.161848955e-15 -0.2461914782)
(0.9028926763 2.104953748e-15 1.239643075 0 -0.4495295825 0 2.73416827 -1.418967692e-15 -0.3990500331)
(1.038000041 1.807876962e-15 1.247255479 0 -0.4221856228 0 2.687195179 -1.560273146e-15 -0.5581286006)
(1.177348837 1.583696971e-15 1.24485981 0 -0.3938019827 0 2.62180798 4.815086608e-16 -0.7224059029)
(1.319542423 1.449959682e-15 1.231236112 0 -0.364425371 0 2.536034559 -7.949193709e-16 -0.8904750369)
(1.462781453 1.275624563e-15 1.205294194 -1.030970444e-15 -0.3341266379 0 2.428046223 6.044702755e-17 -1.060509941)
(1.60487598 1.17414297e-15 1.166163357 -1.032923025e-15 -0.3030036449 0 2.296326479 -1.277132257e-16 -1.230270778)
(1.743275646 9.282928563e-16 1.113254607 -1.035481356e-15 -0.2711829416 0 2.139846134 -3.854061453e-16 -1.397140962)
(1.875164912 -2.003197395e-16 1.046312985 -5.19309907e-16 -0.2388204983 8.308958511e-15 1.958265759 -8.675908312e-16 -1.558216935)
(1.997608792 2.744221184e-15 0.9654407324 -1.042315465e-15 -0.206099709 0 1.75210417 -5.180035983e-16 -1.710443175)
(2.107736659 6.975282724e-16 0.8710587648 -1.56982187e-15 -0.1732276501 -4.186191654e-15 1.522857372 2.171888668e-15 -1.850793557)
(2.202870482 -3.483454221e-15 0.7638010266 -2.628247216e-16 -0.1404285001 4.205195546e-15 1.273025662 -5.297183663e-16 -1.976430029)
(2.280463697 -1.670724709e-15 0.6444379191 -5.282760851e-16 -0.1079376415 0 1.00607887 -7.992936129e-17 -2.084843204)
(2.338581392 -1.703922455e-15 0.5140040632 -6.639332551e-16 -0.07599853742 0 0.7263183438 2.732654872e-16 -2.173966296)
(2.377242962 -2.007367653e-16 0.3735227931 -8.013818621e-16 -0.04484601539 -4.274036598e-15 0.4381642473 7.19992724e-16 -2.24230098)
(2.394431988 7.550461594e-16 0.1499757077 -6.71992823e-16 -0.01467261792 0 0.1456464844 8.202453522e-16 -2.288667166)
(-0.7283409859 -2.033837783e-14 0.01812964552 1.779130267e-14 -1.209411232 0 0.09772224012 -3.793313825e-15 1.99452602)
(-0.9663458753 -2.384231617e-14 0.03014682144 2.431968499e-14 -1.047996907 0 0.2518410007 -9.780239034e-15 1.991025544)
(-0.9556091244 5.518304333e-15 0.04620499721 2.099533198e-14 -0.9987265901 -1.91957321e-13 0.3964048341 -3.161808742e-15 1.985891897)
(-0.9734452958 8.913417604e-15 0.06780447094 8.810173384e-15 -0.9916842052 0 0.5464225227 1.66895986e-14 1.977528635)
(-0.9659405289 5.366626734e-15 0.0892637316 5.284063246e-15 -0.9867789744 -5.636334129e-14 0.692754191 2.372410685e-14 1.966465535)
(-0.9560045909 6.70548528e-15 0.1122021471 5.926989147e-15 -0.9820554956 0 0.8352050011 1.109779941e-14 1.952730431)
(-0.9442442762 7.296749494e-15 0.1370174664 5.156571071e-15 -0.9772832033 0 0.97379105 5.876985595e-15 1.936293647)
(-0.9299831019 -5.068411349e-15 0.1638006539 0 -0.9721632551 0 1.108341516 3.136834328e-15 1.917124022)
(-0.9133461968 -1.350731625e-14 0.1926734174 4.168623218e-15 -0.9665632995 0 1.238772913 3.541683675e-15 1.895172261)
(-0.8943742387 6.295223723e-15 0.2237096452 1.917403061e-15 -0.9604223652 0 1.365066509 1.288221542e-15 1.870391068)
(-0.8730324078 2.577832467e-15 0.2569470867 1.783581383e-15 -0.9537061221 -2.853730212e-14 1.487245332 9.139586702e-15 1.842712079)
(-0.8492536402 -2.99205703e-15 0.2923924156 0 -0.9463918354 0 1.605341575 5.764203661e-15 1.812053092)
(-0.8229678098 -8.814638898e-16 0.330013618 1.583542146e-15 -0.9384619943 0 1.719425148 -3.501424508e-15 1.778338671)
(-0.7940896172 -4.366048468e-15 0.3697672348 4.522083916e-15 -0.92990357 0 1.829579922 4.623426392e-15 1.741468052)
(-0.7625184939 -1.513168036e-15 0.4115889176 2.885445194e-15 -0.9207037742 0 1.93589967 5.320949541e-15 1.701342787)
(-0.7281444958 3.63112955e-16 0.4554027265 5.549666656e-15 -0.9108508964 0 2.038497127 4.839671468e-15 1.657846763)
(-0.6908412674 1.643312097e-15 0.5011251122 2.679540744e-15 -0.9003324606 0 2.137479901 5.219618824e-15 1.610849055)
(-0.6504656045 -1.696664576e-15 0.548668024 5.193974667e-15 -0.8891355089 0 2.232966946 6.645876134e-15 1.56020623)
(-0.6068536626 3.602780227e-15 0.5979382556 5.050303836e-15 -0.8772454694 1.010060767e-14 2.32506397 3.611847258e-15 1.505746326)
(-0.5598184687 7.168458106e-15 0.6488392254 0 -0.8646463088 0 2.41387314 9.508873049e-15 1.447277923)
(-0.5091453495 8.910673772e-16 0.7012712391 0 -0.8513196542 0 2.499475095 7.823931925e-15 1.384577826)
(-0.4545875645 9.631135546e-16 0.755127708 0 -0.8372447866 0 2.581929775 6.446379803e-15 1.317390184)
(-0.3958615976 4.785966538e-15 0.8102913799 0 -0.8223978288 -9.268708719e-15 2.661260798 6.812647197e-15 1.24542092)
(-0.3326457541 5.927502629e-15 0.866627678 0 -0.8067516525 0 2.737451866 3.616425064e-15 1.168330856)
(-0.264573944 5.219810329e-15 0.9239788219 2.247723203e-15 -0.7902753371 8.990892813e-15 2.810428742 -2.520245163e-16 1.08573539)
(-0.1912327509 5.979783728e-15 0.9821448634 0 -0.7729339057 0 2.880043003 2.722456832e-16 0.9971977964)
(-0.1121634004 6.560607057e-15 1.040885513 0 -0.7546879131 0 2.94606129 -3.940873217e-15 0.9022297837)
(-0.02685737691 6.5986458e-15 1.099891112 0 -0.7354935305 0 3.008137012 -3.625846404e-16 0.8002882428)
(0.06524276765 6.679695709e-15 1.158759042 0 -0.7153020935 0 3.065784779 -3.133326915e-15 0.6907828585)
(0.1647230539 7.811663094e-15 1.216979766 0 -0.6940603695 0 3.118357465 5.598777906e-16 0.5730772944)
(0.2721961776 1.07661897e-14 1.273907001 0 -0.6717112653 0 3.165006514 -8.414579372e-16 0.4465089125)
(0.3882829209 5.232731043e-15 1.328737378 1.057701656e-15 -0.6481940721 8.461613246e-15 3.204643888 -1.274309552e-15 0.3104076753)
(0.5135695175 1.110944776e-15 1.380477309 0 -0.623445848 0 3.235907267 6.571964207e-16 0.1641209978)
(0.648568955 5.219044314e-15 1.427910687 0 -0.5974032737 0 3.257109255 5.089932112e-16 0.007071217465)
(0.7936614246 2.414151335e-15 1.469609208 2.094992345e-15 -0.5700050308 1.675993876e-14 3.266208946 -2.476883482e-16 -0.1611875697)
(0.9490185939 9.539625707e-16 1.503921892 0 -0.5411952093 0 3.260781904 1.71512888e-17 -0.3408936409)
(1.11449869 -3.418957041e-16 1.528968392 0 -0.5109274652 0 3.238001957 -2.065186989e-16 -0.5319746332)
(1.28953614 1.180756545e-15 1.542700401 1.045025672e-15 -0.4791707938 8.360205376e-15 3.194666194 -9.657141117e-16 -0.7339315887)
(1.473025044 2.644853126e-15 1.542960277 0 -0.4459156655 0 3.127259989 -1.135292987e-15 -0.9456998855)
(1.663176234 1.20653353e-16 1.527575304 0 -0.4111813819 0 3.032074333 -2.477622308e-15 -1.165529681)
(1.857417553 5.95189504e-16 1.494511817 0 -0.375024236 0 2.905412068 -7.082017842e-16 -1.390868387)
(2.052324969 8.431340218e-16 1.442031804 0 -0.3375449144 0 2.743891635 8.685311412e-17 -1.618280665)
(2.243641944 4.738333323e-17 1.368882142 -1.054794201e-15 -0.29889552 0 2.544826413 3.826671077e-16 -1.843462982)
(2.426440309 -5.539283458e-15 1.27447486 -1.058547403e-15 -0.2592832964 0 2.306687218 1.607036635e-16 -2.061382996)
(2.595412693 2.64154538e-16 1.158935121 -1.594268646e-15 -0.2189703823 -4.251383056e-15 2.029559229 2.047855831e-15 -2.266544141)
(2.745170947 4.675230006e-15 1.023024457 -1.067670724e-15 -0.1782679358 0 1.715522649 5.18666368e-16 -2.453395873)
(2.870434472 -9.336408035e-16 0.8680659605 -5.365029084e-16 -0.1375279483 0 1.368918294 3.033254864e-16 -2.616791089)
(2.967448723 -8.222965827e-16 0.6960576766 -5.394181298e-16 -0.09713405808 0 0.9962684137 -3.032743367e-16 -2.752452109)
(3.035890044 -2.083666235e-16 0.5088989589 -6.78218126e-16 -0.05745955593 0 0.60485701 -8.858639851e-16 -2.857351208)
(3.068667767 2.167565407e-16 0.205219745 -7.165806286e-16 -0.01881790302 0 0.2017410331 -5.814937937e-16 -2.929171321)
(-0.8257669235 -1.524166611e-14 0.02034656315 1.445470349e-14 -1.371913111 0 0.1075634221 -2.885612105e-15 2.260271797)
(-1.095646946 -2.131204617e-14 0.03408400227 2.222858957e-14 -1.188424462 0 0.2770508365 -1.330065858e-14 2.256381889)
(-1.083699367 -1.859157656e-15 0.05231860337 1.827626342e-14 -1.132492781 0 0.4360134518 -2.111931358e-14 2.250513048)
(-1.103943813 3.128088113e-15 0.07656343714 8.947380524e-15 -1.12457685 0 0.6009779974 -4.275154182e-15 2.241033353)
(-1.095402942 4.332214275e-15 0.1005588719 7.155140996e-15 -1.119001486 0 0.7617239649 -4.575925404e-15 2.228578625)
(-1.084318306 6.474856225e-15 0.1261312709 6.019294394e-15 -1.113662646 0 0.918112651 2.854274016e-15 2.213186934)
(-1.071249648 -6.904087267e-16 0.1536966445 5.236878045e-15 -1.1082945 0 1.070140329 5.232966333e-15 2.194859969)
(-1.055473791 -3.178639558e-15 0.1833534101 4.666561874e-15 -1.102560124 0 1.217607572 1.506205105e-14 2.173603233)
(-1.037185575 -1.922459024e-15 0.2152314203 2.116772087e-15 -1.096316186 0 1.360439194 4.972486332e-15 2.149417324)
(-1.016472116 -1.78372439e-15 0.2494224895 3.894528305e-15 -1.089502234 0 1.498644101 1.267929188e-14 2.122288055)
(-0.9933183061 -1.09318308e-15 0.2859869801 7.245433491e-15 -1.082087024 0 1.632256661 1.423869089e-14 2.092172858)
(-0.9676893916 2.749733231e-15 0.3249383119 6.801272533e-15 -1.074050863 0 1.761348513 8.48113121e-15 2.059035849)
(-0.9395416963 -1.01140941e-15 0.3662663328 6.432815127e-15 -1.065382167 0 1.886039908 8.896131895e-15 2.022826738)
(-0.9088079943 -4.036385362e-15 0.4099439927 6.123346089e-15 -1.056072238 0 2.006458045 8.239313151e-15 1.983473465)
(-0.8754120954 -1.096031661e-15 0.455926915 2.930382299e-15 -1.046113461 0 2.122770449 7.592377901e-15 1.940909928)
(-0.8392588676 5.228799619e-17 0.5041678559 5.636095589e-15 -1.035498828 0 2.235151227 7.336747731e-15 1.895036114)
(-0.8002354096 9.035470619e-17 0.55461157 5.442542302e-15 -1.024220106 0 2.343798149 7.460870873e-15 1.845750169)
(-0.758208512 6.129969086e-15 0.6072072594 2.637432077e-15 -1.012268196 0 2.448911883 8.427878496e-15 1.792914203)
(-0.7130165652 -4.082127935e-16 0.6619076983 -2.564477917e-15 -0.9996318072 -1.025791167e-14 2.550706233 6.01004969e-15 1.73637636)
(-0.664470417 -1.873141526e-15 0.7186660906 2.500778256e-15 -0.9862973439 -1.000311302e-14 2.649390492 1.062072123e-14 1.675938173)
(-0.6123435256 5.393851896e-15 0.7774456512 4.890043685e-15 -0.9722482549 0 2.745171881 8.804368824e-15 1.611375011)
(-0.5563671124 2.454641961e-15 0.8382115328 2.396142391e-15 -0.9574644279 0 2.838244924 6.48408067e-15 1.542411578)
(-0.4962246863 5.850987064e-15 0.9009331015 0 -0.9419216319 0 2.928789127 4.265596489e-15 1.468721644)
(-0.431542297 1.065792344e-14 0.9655753479 -2.315661703e-15 -0.9255909514 -9.262646812e-15 3.016953908 4.901070043e-15 1.389916289)
(-0.3618774168 8.818822624e-15 1.032088403 2.282728606e-15 -0.9084379944 9.130914426e-15 3.102850441 2.338707088e-15 1.30553838)
(-0.2867189344 1.065125669e-14 1.100407768 0 -0.8904220876 0 3.186538466 1.656642042e-15 1.215048474)
(-0.2054709224 6.802086827e-15 1.170431517 2.228907812e-15 -0.8714959993 8.915631246e-15 3.26800496 1.298312794e-16 1.11781609)
(-0.1174381282 3.175033371e-15 1.242002851 0 -0.8516046502 0 3.347139761 -2.791231212e-16 1.013114905)
(-0.02183267563 5.845457934e-15 1.314888344 0 -0.8306845104 0 3.423713283 -2.309944454e-15 0.900103911)
(0.08224000558 7.118557811e-15 1.388743448 2.17269842e-15 -0.8086632759 8.690793679e-15 3.49733719 -1.42749095e-15 0.7778282116)
(0.1957871248 8.660628748e-15 1.463080035 0 -0.7854589553 0 3.567411472 9.312724868e-16 0.6452172194)
(0.3199183883 3.604357293e-15 1.537236613 2.148348002e-15 -0.7609796687 8.593392009e-15 3.633079009 3.844059804e-15 0.5010809355)
(0.4558386785 1.798926068e-15 1.610313554 0 -0.7351236334 0 3.693151715 2.230986655e-15 0.3441275112)
(0.6048092647 3.557152764e-15 1.681108573 0 -0.7077794983 0 3.746024463 2.942092436e-15 0.1729907609)
(0.768097004 2.676145976e-15 1.748086878 0 -0.6788280502 0 3.789586081 3.8427657e-15 -0.01372065175)
(0.946910143 2.037217485e-15 1.80932239 0 -0.6481443761 0 3.821114785 2.63885444e-15 -0.2173344521)
(1.142268785 3.314658179e-15 1.86242634 0 -0.6156014111 0 3.837170936 2.587329213e-15 -0.4390046266)
(1.35483012 3.032583565e-15 1.904519669 0 -0.5810759289 0 3.833490559 5.35995634e-16 -0.6795422844)
(1.584680795 3.936764647e-15 1.932248241 0 -0.5444566395 0 3.804925157 1.467661872e-15 -0.9391802892)
(1.831052493 4.797453967e-16 1.941839285 1.063331788e-15 -0.5056547188 8.506654307e-15 3.745434101 5.309487927e-16 -1.217290512)
(2.091973426 -3.103443459e-15 1.929215101 0 -0.4646178576 0 3.648179954 7.078648624e-16 -1.512035305)
(2.363923516 -9.240567235e-16 1.890243269 0 -0.4213473598 0 3.505798711 7.226774235e-16 -1.819993158)
(2.641541231 -3.127882408e-16 1.82115214 0 -0.3759169776 0 3.310891175 6.823396615e-16 -2.135847167)
(2.917490954 -3.84240282e-16 1.719013202 0 -0.3284918857 0 3.056805488 -1.85448391e-16 -2.452232093)
(3.182633502 1.328165781e-16 1.58224994 -1.079398222e-15 -0.2793439528 0 2.738698671 -3.786556055e-15 -2.759883548)
(3.4263502 -1.868932171e-16 1.410991027 -1.084298325e-15 -0.2288588843 0 2.354852195 1.731605845e-16 -3.048201248)
(3.637217789 -1.096101563e-16 1.207243157 -5.448582524e-16 -0.1775373868 4.35886602e-15 1.908178449 8.474962447e-16 -3.306213529)
(3.806684271 5.783126987e-16 0.9750335954 -2.739094373e-16 -0.1259816537 0 1.407098077 -3.824919277e-15 -3.524081818)
(3.932383147 3.164085434e-16 0.7183100594 -6.887805026e-16 -0.07480314741 0 0.8633059199 -5.397189612e-16 -3.694644966)
(3.996691879 1.519556479e-16 0.291181451 -6.930861447e-16 -0.02454041921 0 0.2896828132 -6.814383509e-16 -3.81268904)
(-0.930859222 -7.924091296e-15 0.02277265887 1.467981816e-14 -1.547366181 0 0.1174450792 -4.36538047e-15 2.547089757)
(-1.235114735 -9.303275671e-15 0.03848415256 1.003323253e-14 -1.339957076 0 0.3023324427 -1.532637707e-14 2.542746101)