/*--------------------------------*- C++ -*----------------------------------*\
  =========                 |
  \\      /  F ield         | OpenFOAM: The Open Source CFD Toolbox
   \\    /   O peration     | Website:  https://openfoam.org
    \\  /    A nd           | Version:  7
     \\/     M anipulation  |
\*---------------------------------------------------------------------------*/
FoamFile
{
    version     2.0;
    format      ascii;
    class       volScalarField;
    location    "0.0003";
    object      p;
}
// * * * * * * * * * * * * * * * * * * * * * * * * * * * * * * * * * * * * * //

dimensions      [1 -1 -2 0 0 0 0];

internalField   nonuniform List<scalar> 
1167
(
1425753.761
1432024.789
1422220.324
1428795.359
1427238.078
1427472.462
1428045.17
1428664.422
1429389.515
1430221.15
1431149.016
1432166.167
1433267.038
1434446.358
1435697.682
1437015.778
1438395.001
1439829.278
1441313.735
1442841.875
1444408.923
1446008.476
1447635.55
1449283.808
1450948.044
1452621.871
1454299.851
1455975.53
1457643.094
1459295.95
1460927.96
1462532.408
1464102.822
1465632.47
1467114.688
1468542.877
1469910.516
1471211.095
1472438.545
1473586.706
1474650.082
1475622.948
1476500.45
1477277.714
1477950.653
1478515.251
1478968.284
1479307.178
1479530.402
1479631.531
1479602.559
1479488.413
1418619.627
1425497.641
1423877.659
1424171.067
1424816.815
1425519.8
1426342.894
1427284.281
1428331.912
1429477.925
1430716.437
1432040.363
1433442.923
1434918.591
1436460.459
1438063.049
1439720.162
1441426.143
1443175.19
1444961.607
1446779.758
1448623.917
1450488.325
1452367.328
1454254.82
1456144.948
1458031.294
1459907.621
1461767.231
1463603.306
1465408.75
1467176.362
1468898.669
1470568.283
1472177.253
1473718.135
1475183.1
1476564.547
1477855.058
1479047.19
1480134.165
1481109.312
1481966.734
1482700.875
1483307.162
1483782.115
1484122.326
1484319.601
1484370.842
1484331.617
1414969.523
1422148.834
1420465.723
1420820.391
1421540.064
1422328.537
1423251.421
1424304.298
1425473.695
1426751.547
1428130.254
1429601.698
1431159.274
1432795.865
1434504.736
1436279.959
1438114.847
1440004.14
1441941.43
1443921.636
1445938.686
1447987.445
1450062.06
1452157.228
1454267.153
1456385.844
1458507.335
1460625.297
1462733.044
1464823.631
1466889.728
1468923.48
1470917.067
1472861.775
1474748.793
1476569.077
1478313.015
1479970.941
1481533.004
1482989.441
1484330.531
1485547.268
1486630.858
1487573.728
1488369.253
1489012.611
1489498.122
1489815.262
1489968.3
1490026.088
1411286.667
1418764.819
1417018.033
1417435.848
1418230.18
1419105.049
1420128.517
1421293.841
1422586.627
1423997.893
1425518.332
1427139.621
1428854.349
1430654.382
1432533.367
1434484.218
1436501.013
1438577.473
1440708.241
1442887.493
1445110.177
1447370.788
1449664.417
1451985.726
1454329.522
1456690.31
1459062.484
1461439.967
1463816.484
1466185.324
1468538.895
1470869.487
1473168.653
1475427.071
1477634.876
1479781.372
1481855.292
1483844.306
1485735.599
1487516.171
1489172.514
1490691.42
1492060.168
1493267.173
1494302.703
1495159.689
1495829.589
1496298.935
1496583.202
1496769.289
1407585.744
1415359.953
1413549.129
1414032.063
1414901.08
1415862.286
1416986.521
1418264.686
1419681.642
1421226.622
1422889.42
1424661.56
1426534.034
1428499.048
1430549.262
1432677.697
1434878.202
1437144.61
1439471.599
1441853.881
1444286.392
1446764.505
1449283.507
1451838.872
1454425.911
1457040.059
1459676.179
1462329.098
1464993.329
1467662.481
1470329.75
1472987.651
1475627.805
1478240.985
1480816.544
1483342.626
1485806.283
1488192.951
1490486.459
1492669.446
1494723.349
1496628.868
1498366.881
1499919.489
1501271.882
1502412.402
1503326.388
1503995.469
1504452.11
1504808.563
1403881.9
1411948.976
1410073.125
1410622.219
1411564.284
1412610.457
1413834.021
1415223.977
1416763.464
1418440.419
1420244.531
1422165.927
1424194.962
1426323.895
1428544.362
1430849.925
1433233.706
1435690.253
1438213.932
1440800.166
1443444.35
1446142.293
1448890.101
1451683.965
1454520.24
1457395.029
1460304.516
1463244.705
1466211.075
1469198.49
1472201.418
1475213.401
1478226.961
1481233.59
1484223.202
1487183.867
1490101.73
1492960.717
1495742.073
1498424.378
1500983.776
1503394.524
1505629.358
1507660.431
1509461.099
1511006.353
1512266.78
1513215.455
1513914.681
1514521.64
1400189.294
1408543.216
1406599.164
1407214.482
1408227.013
1409355.695
1410676.44
1412175.689
1413834.943
1415641.529
1417584.578
1419652.756
1421836.641
1424127.129
1426516.334
1428996.893
1431562.601
1434207.355
1436926.288
1439714.775
1442568.948
1445485.226
1448460.47
1451491.798
1454576.46
1457711.988
1460895.969
1464125.745
1467398.434
1470710.972
1474059.706
1477440.258
1480847.349
1484274.468
1487713.73
1491155.184
1494586.4
1497991.982
1501352.737
1504645.288
1507841.492
1510907.619
1513803.465
1516483.189
1518899.869
1521010.821
1522772.793
1524151.693
1525237.008
1526224.204
1396502.455
1405139.304
1403126.171
1403812.42
1404897.584
1406112.215
1407534.336
1409146.916
1410930.448
1412871.946
1414958.683
1417178.954
1419522.579
1421979.639
1424542.005
1427201.794
1429952.639
1432788.646
1435704.66
1438696.602
1441760.783
1444894.388
1448094.768
1451359.906
1454688.249
1458078.548
1461529.661
1465040.578
1468610.35
1472238.08
1475922.558
1479662.239
1483455.057
1487297.916
1491186.609
1495115.28
1499075.509
1503055.801
1507040.475
1511008.555
1514932.519
1518777.337
1522500.232
1526053.511
1529389.438
1532453.263
1535151.237
1537366.761
1539150.956
1540648.139
1392840.716
1401763.47
1399680.531
1400445.524
1401605.231
1402907.864
1404432.487
1406158.33
1408065.104
1410138.401
1412363.96
1414729.766
1417224.077
1419837.263
1422559.996
1425384.935
1428305.234
1431315.521
1434411.079
1437588.221
1440844.136
1444176.6
1447584.16
1451066.044
1454622.01
1458252.205
1461957.276
1465738.317
1469596.806
1473534.528
1477553.49
1481656.213
1485845.415
1490123.71
1494493.752
1498957.659
1503516.796
1508170.834
1512916.866
1517747.92
1522650.965
1527604.378
1532574.446
1537509.335
1542326.641
1546880.495
1550921.105
1554228.452
1557113.241
1560109.203
1389340.943
1398536.889
1396333.716
1397164.673
1398365.207
1399714.485
1401293.727
1403078.184
1405047.023
1407184.07
1409474.785
1411905.776
1414464.945
1417141.735
1419926.986
1422812.424
1425791.526
1428858.569
1432008.963
1435239.167
1438546.382
1441928.592
1445384.687
1448913.985
1452516.355
1456192.183
1459942.381
1463768.355
1467671.983
1471655.438
1475721.759
1479874.472
1484117.941
1488457.412
1492899.125
1497450.287
1502119.485
1506916.501
1511852.155
1516937.991
1522185.687
1527605.549
1533204.113
1538980.571
1544921.826
1550992.161
1557152.94
1563623.178
1571310.099
1579718.08
1385856.081
1395415.006
1393072.737
1394002.104
1395275.062
1396713.083
1398401.998
1400314.809
1402430.439
1404733.001
1407208.545
1409843.004
1412624.888
1415542.748
1418587.631
1421750.877
1425025.155
1428404.542
1431883.822
1435458.678
1439125.723
1442882.304
1446726.438
1450656.756
1454672.416
1458773.09
1462958.929
1467230.655
1471589.477
1476037.019
1480575.993
1485209.601
1489942.171
1494779.42
1499728.871
1504800.558
1510007.385
1515366.513
1520900.747
1526640.1
1532623.786
1538902.702
1545541.518
1552620.567
1560233.425
1568481.375
1577529.354
1587870.757
1600323.203
1613383.259
1382401.311
1392179.442
1389777.482
1390708.914
1391984.197
1393421.071
1395107.067
1397014.367
1399120.31
1401408.877
1403864.693
1406473.351
1409222.139
1412099.521
1415094.905
1418199.601
1421405.414
1424705.266
1428093.494
1431564.852
1435114.964
1438740.125
1442437.221
1446203.518
1450036.788
1453935.096
1457896.661
1461919.97
1466003.83
1470147.242
1474349.33
1478609.427
1482927.22
1487302.642
1491736.005
1496228.158
1500780.416
1505395.054
1510075.865
1514829.159
1519665.46
1524602.825
1529671.674
1534921.937
1540430.089
1546310.799
1552771.664
1560214.489
1568924.444
1577421.542
1379113.395
1389019.153
1386602.399
1387541.889
1388844.443
1390311.557
1392031.986
1393977.111
1396123.56
1398455.033
1400954.8
1403608.541
1406402.212
1409324.252
1412363.32
1415509.83
1418755.519
1422092.791
1425515.075
1429016.698
1432592.864
1436239.306
1439952.233
1443728.226
1447564.423
1451458.209
1455407.246
1459409.101
1463461.873
1467563.827
1471713.443
1475909.312
1480150.641
1484437.405
1488770.046
1493150.135
1497580.828
1502067.059
1506616.026
1511237.58
1515944.562
1520752.479
1525678.851
1530741.981
1535959.855
1541343.095
1546855.828
1552337.547
1557498.586
1562016.872
1375817.155
1385831.771
1383410.763
1384350.626
1385674.14
1387163.811
1388909.563
1390882.886
1393060.28
1395424.49
1397958.447
1400647.136
1403476.163
1406432.674
1409505.314
1412683.36
1415957.542
1419319.726
1422762.372
1426278.867
1429863.288
1433510.35
1437215.192
1440973.451
1444780.962
1448633.788
1452528.509
1456461.742
1460430.198
1464431.062
1468461.677
1472519.693
1476603.332
1480711.59
1484844.256
1489002.393
1493188.734
1497408.125
1501668.191
1505979.754
1510357.463
1514819.097
1519383.649
1524066.388
1528869.885
1533763.38
1538631.405
1543214.185
1547178.954
1550366.254
1372493.701
1382599.051
1380178.692
1381111.18
1382448.194
1383951.524
1385711.601
1387700.846
1389895.562
1392277.274
1394829.308
1397535.264
1400380.986
1403352.492
1406437.839
1409626.034
1412906.908
1416271.371
1419711.307
1423219.455
1426789.111
1430414.097
1434088.825
1437808.305
1441567.72
1445362.557
1449188.562
1453042.24
1456919.837
1460818.356
1464734.999
1468667.707
1472614.842
1476575.592
1480550.169
1484540.014
1488548.029
1492578.986
1496639.72
1500739.33
1504888.745
1509099.26
1513378.336
1517721.709
1522100.483
1526441.21
1530600.534
1534370.124
1537574.027
1540160.888
1369151.541
1379333.597
1376917.629
1377838.805
1379185.657
1380698.018
1382467.043
1384466.439
1386671.556
1389063.493
1391625.331
1394340.091
1397192.878
1400169.778
1403257.633
1406445.049
1409721.382
1413076.905
1416502.833
1419991.184
1423534.704
1427126.712
1430761.14
1434432.233
1438134.891
1441864.529
1445616.489
1449387.055
1453172.572
1456970
1460776.754
1464590.983
1468411.345
1472237.29
1476069.418
1479909.473
1483760.715
1487628.108
1491518.31
1495439.661
1499400.637
1503406.863
1507454.357
1511519.539
1515547.614
1519441.731
1523060.21
1526252.511
1528957.59
1531194.159
1365781.504
1376030.74
1373621.606
1374528.346
1375880.918
1377397.397
1379169.821
1381173.203
1383381.63
1385776.623
1388340.003
1391055.301
1393906.378
1396879.2
1399960.397
1403137.657
1406399.77
1409736.692
1413139.172
1416598.725
1420107.543
1423658.661
1427245.725
1430862.829
1434504.493
1438166.029
1441843.133
1445531.925
1449228.994
1452931.498
1456637.212
1460344.459
1464052.172
1467760.125
1471469.07
1475180.864
1478898.652
1482626.862
1486371.421
1490138.714
1493933.552
1497754.41
1501585.756
1505388.628
1509094.704
1512606.195
1515804.972
1518594.185
1520982.173
1523011.167
1362375.623
1372683.01
1370282.34
1371171.432
1372525.295
1374040.912
1375811.266
1377812.033
1380016.858
1382407.24
1384964.382
1387671.627
1390512.802
1393472.823
1396538.391
1399696.803
1402936.492
1406246.898
1409618.426
1413042.33
1416510.606
1420016.065
1423551.997
1427112.661
1430692.703
1434287.177
1437892.165
1441503.822
1445118.968
1448735.021
1452349.979
1455962.276
1459571.025
1463176.197
1466778.546
1470379.879
1473983.034
1477591.985
1481211.49
1484845.488
1488494.37
1492148.885
1495782.6
1499345.827
1502766.361
1505956.77
1508826.959
1511322.286
1513492.514
1515383.83
1358927.052
1369283.578
1366892.454
1367760.785
1369111.995
1370622.419
1372385.57
1374377.738
1376572.951
1378951.72
1381495.929
1384187.818
1387011.564
1389951.925
1392994.821
1396127.484
1399338.263
1402616.304
1405951.79
1409335.714
1412760.043
1416217.537
1419701.561
1423206.05
1426726.03
1430256.672
1433794.069
1437334.535
1440875.154
1444413.497
1447947.643
1451476.105
1454998.134
1458513.682
1462023.465
1465529.12
1469033.065
1472538.632
1476049.01
1479565.394
1483083.177
1486585.694
1490037.845
1493384.518
1496556.775
1499482.159
1502095.741
1504372.62
1506385.927
1508177.817
1355427.208
1365824.111
1363443.342
1364288.329
1365633.306
1367134.838
1368885.944
1370864.445
1373044.463
1375405.928
1377931.03
1380601.879
1383402.097
1386316.75
1389331.627
1392433.697
1395611.052
1398852.83
1402149.142
1405490.925
1408870.119
1412279.274
1415712.049
1419162.523
1422625.45
1426096.477
1429571.608
1433047.266
1436520.735
1439989.666
1443452.122
1446906.723
1450352.757
1453790.086
1457219.353
1460641.897
1464059.705
1467475.119
1470889.567
1474301.116
1477700.007
1481062.916
1484348.814
1487501.739
1490460.248
1493167.597
1495579.165
1497690.177
1499586.243
1501302.354
1351866.186
1362295.201
1359925.734
1360745.131
1362080.896
1363569.955
1365304.813
1367265.47
1369425.327
1371764.963
1374265.835
1376910.767
1379683.17
1382567.731
1385550.519
1388618.494
1391759.644
1394963.082
1398218.846
1401517.862
1404852.179
1408214.439
1411598.001
1414997.352
1418407.205
1421823.314
1425241.626
1428658.823
1432072.178
1435479.364
1438878.44
1442268.099
1445647.577
1449016.674
1452375.876
1455726.186
1459069.032
1462405.559
1465735.205
1469052.685
1472343.291
1475578.221
1478713.258
1481694.853
1484470.978
1486999.135
1489250.201
1491232.734
1493038.57
1494694.735
1348233.788
1358687.093
1356329.84
1357121.87
1358445.839
1359919.227
1361634.562
1363573.729
1365709.685
1368023.591
1370496.759
1373111.999
1375853.188
1378705.026
1381653.392
1384685.333
1387788.927
1390953.325
1394168.557
1397425.666
1400716.46
1404033.833
1407371.283
1410722.97
1414084.042
1417450.021
1420816.932
1424181.667
1427541.426
1430893.837
1434237.033
1437569.723
1440891.048
1444200.748
1447499.062
1450786.649
1454064.23
1457331.631
1460586.085
1463818.878
1467010.808
1470128.999
1473128.451
1475960.086
1478581.553
1480962.385
1483084.945
1484966.483
1486701.483
1488309.162
1344519.287
1354989.59
1352645.568
1353408.874
1354718.582
1356173.89
1357867.4
1359782.099
1361891.668
1364176.861
1366619.937
1369203.386
1371911.28
1374728.684
1377641.544
1380636.941
1383703.024
1386828.942
1390004.728
1393221.565
1396471.26
1399746.53
1403041.04
1406349.02
1409665.567
1412986.104
1416306.896
1419624.745
1422936.873
1426240.891
1429534.993
1432817.851
1436088.561
1439346.75
1442592.377
1445825.671
1449046.537
1452253.39
1455441.126
1458597.657
1461699.999
1464712.579
1467591.342
1470292.882
1472783.859
1475043.531
1477062.578
1478863.958
1480542.765
1482110.868
1440843.894
1444015.681
1447169.678
1450298.351
1453386.447
1456407.886
1459325.805
1462098.279
1464687.879
1467069.264
1469229.346
1471164.817
1472902.342
1474536.494
1476072.361
)
;

boundaryField
{
    front_top
    {
        type            wedge;
    }
    front_middle
    {
        type            wedge;
    }
    front_bottom
    {
        type            wedge;
    }
    back_top
    {
        type            wedge;
    }
    back_middle
    {
        type            wedge;
    }
    back_bottom
    {
        type            wedge;
    }
    axis_top
    {
        type            symmetryPlane;
    }
    axis_middle
    {
        type            symmetryPlane;
    }
    axis_bottom
    {
        type            symmetryPlane;
    }
    wall_top
    {
        type            fixedFluxPressure;
        gradient        uniform 0;
        value           nonuniform List<scalar> 10(1479488.413 1484331.617 1490026.088 1496769.289 1504808.563 1514521.64 1526224.204 1540648.139 1560109.203 1579718.08);
    }
    wall_middle
    {
        type            fixedFluxPressure;
        gradient        uniform 0;
        value           nonuniform List<scalar> 
14
(
1613383.259
1577421.542
1562016.872
1550366.254
1540160.888
1531194.159
1523011.167
1515383.83
1508177.817
1501302.354
1494694.735
1488309.162
1482110.868
1476072.361
)
;
    }
    wall_bottom
    {
        type            fixedFluxPressure;
        gradient        nonuniform 0();
        value           nonuniform 0();
    }
    inlet
    {
        type            zeroGradient;
    }
    outlet
    {
        type            fixedValue;
        value           nonuniform 0();
    }
    procBoundary5to4
    {
        type            processor;
        value           nonuniform List<scalar> 
51
(
1340711.626
1351192.354
1348862.639
1349596.058
1350889.644
1352325.365
1353995.235
1355883.632
1357965.093
1360220.111
1362631.439
1365182.17
1367856.295
1370638.948
1373516.378
1376475.775
1379505.347
1382594.272
1385732.668
1388911.559
1392122.799
1395359.279
1398614.367
1401882.582
1405158.744
1408438.458
1411718.038
1414994.226
1418264.206
1421525.674
1424776.863
1428016.375
1431243.283
1434457.041
1437657.348
1437657.348
1435840.76
1438970.372
1442078.406
1445155.04
1448182.14
1451131.178
1453965.075
1456644.891
1459139
1461428.867
1463507.363
1465375.471
1467062.231
1468661.176
1470171.131
)
;
    }
    procBoundary5to6
    {
        type            processor;
        value           nonuniform List<scalar> 
51
(
1429201.442
1435168.233
1430529.831
1430529.831
1430707.853
1431209.08
1431746.615
1432376.622
1433101.197
1433912.255
1434804.061
1435771.249
1436809.75
1437914.418
1439079.553
1440301.077
1441572.917
1442890.242
1444247.496
1445639.22
1447060.088
1448504.246
1449966.439
1451440.578
1452921.247
1454402.283
1455878.089
1457342.454
1458789.5
1460213.05
1461607.023
1462965.412
1464282.007
1465551.044
1466766.614
1467923.287
1469015.634
1470038.657
1470987.609
1471858.117
1472646.139
1473347.86
1473959.996
1474479.437
1474903.636
1475230.117
1475457.488
1475585.118
1475608.539
1475515.576
1475343.216
)
;
    }
}


// ************************************************************************* //
