/*--------------------------------*- C++ -*----------------------------------*\
  =========                 |
  \\      /  F ield         | OpenFOAM: The Open Source CFD Toolbox
   \\    /   O peration     | Website:  https://openfoam.org
    \\  /    A nd           | Version:  7
     \\/     M anipulation  |
\*---------------------------------------------------------------------------*/
FoamFile
{
    version     2.0;
    format      ascii;
    class       surfaceScalarField;
    location    "0.0003";
    object      phi;
}
// * * * * * * * * * * * * * * * * * * * * * * * * * * * * * * * * * * * * * //

dimensions      [1 0 -1 0 0 0 0];

internalField   nonuniform List<scalar> 
2259
(
-5.076983741e-13
4.898482423e-11
1.433133588e-10
-5.796059943e-13
4.956443023e-11
-2.272253808e-12
1.450060066e-10
-5.009367183e-12
2.350797436e-10
-8.719077028e-12
3.199602811e-10
-1.332852552e-11
3.998322535e-10
-1.876380425e-11
4.748733699e-10
-2.494994975e-11
5.452536496e-10
-3.181103075e-11
6.111373126e-10
-3.92702879e-11
6.726829158e-10
-4.725024028e-11
7.300437041e-10
-5.567265314e-11
7.833681914e-10
-6.445858877e-11
8.328005698e-10
-7.352872925e-11
8.784816364e-10
-8.280321052e-11
9.205491204e-10
-9.220187818e-11
9.591380319e-10
-1.016445124e-10
9.943815011e-10
-1.110506111e-10
1.026410488e-09
-1.203400315e-10
1.055354705e-09
-1.294325199e-10
1.081342157e-09
-1.38248457e-10
1.104499885e-09
-1.467083979e-10
1.124953547e-09
-1.547337922e-10
1.142827997e-09
-1.622466051e-10
1.158246845e-09
-1.691700385e-10
1.171333043e-09
-1.75428268e-10
1.182208411e-09
-1.80947217e-10
1.19099424e-09
-1.856545211e-10
1.197810925e-09
-1.894803689e-10
1.202778476e-09
-1.923577694e-10
1.206016328e-09
-1.942235544e-10
1.207643729e-09
-1.950190589e-10
1.20777974e-09
-1.946912879e-10
1.20654339e-09
-1.931940282e-10
1.204053649e-09
-1.904891989e-10
1.200429401e-09
-1.865482346e-10
1.19578917e-09
-1.813536624e-10
1.190250871e-09
-1.749002974e-10
1.183930925e-09
-1.671967945e-10
1.176943832e-09
-1.582662928e-10
1.169400704e-09
-1.481475223e-10
1.161408759e-09
-1.368945114e-10
1.153069517e-09
-1.245766746e-10
1.144478261e-09
-1.112775726e-10
1.135722603e-09
-9.709389691e-11
1.12688219e-09
-8.213344049e-11
1.118027882e-09
-6.651353259e-11
1.109222075e-09
-5.035869621e-11
1.100518561e-09
-3.37991734e-11
1.091963576e-09
-1.696813154e-11
1.083594557e-09
1.07544e-09
-6.581235122e-13
5.022255374e-11
-2.580204761e-12
1.469280878e-10
-5.688498285e-12
2.381880371e-10
-9.901777234e-12
3.241735601e-10
-1.513790188e-11
4.050683781e-10
-2.131376631e-11
4.810492343e-10
-2.834530245e-11
5.522851857e-10
-3.614771389e-11
6.18939724e-10
-4.463561753e-11
6.811708195e-10
-5.372312984e-11
7.391312164e-10
-6.332377778e-11
7.929688393e-10
-7.335080719e-11
8.428275992e-10
-8.371721254e-11
8.888480417e-10
-9.433560682e-11
9.311675146e-10
-1.051186938e-10
9.699211189e-10
-1.159789272e-10
1.005241735e-09
-1.268288928e-10
1.037260454e-09
-1.375811487e-10
1.066106961e-09
-1.481483757e-10
1.091909384e-09
-1.584433597e-10
1.114794869e-09
-1.683789964e-10
1.134889184e-09
-1.778683216e-10
1.152317322e-09
-1.868245218e-10
1.167203045e-09
-1.951608822e-10
1.179669403e-09
-2.027909976e-10
1.189838526e-09
-2.096287034e-10
1.197831945e-09
-2.155884476e-10
1.203770669e-09
-2.205854026e-10
1.207775431e-09
-2.245360247e-10
1.20996695e-09
-2.273586211e-10
1.210466326e-09
-2.289741919e-10
1.209395311e-09
-2.293074793e-10
1.206876677e-09
-2.282884173e-10
1.203034587e-09
-2.258535929e-10
1.197994577e-09
-2.219486063e-10
1.191884183e-09
-2.165298131e-10
1.184832078e-09
-2.095671656e-10
1.176968277e-09
-2.010464714e-10
1.168423138e-09
-1.909718663e-10
1.159326099e-09
-1.793681188e-10
1.149805011e-09
-1.66281911e-10
1.139983309e-09
-1.517830693e-10
1.129979419e-09
-1.359641745e-10
1.119903708e-09
-1.189397593e-10
1.109857775e-09
-1.00844036e-10
1.099932159e-09
-8.182824831e-11
1.090206287e-09
-6.205746668e-11
1.080747779e-09
-4.170726189e-11
1.071613371e-09
-2.095979473e-11
1.06284709e-09
1.054480205e-09
-7.431458782e-13
5.096569962e-11
-2.913666552e-12
1.490986085e-10
-6.423829939e-12
2.416982005e-10
-1.118223095e-11
3.289319611e-10
-1.709665368e-11
4.109828008e-10
-2.407398255e-11
4.880265632e-10
-3.202035311e-11
5.602315563e-10
-4.084146772e-11
6.277608386e-10
-5.044275434e-11
6.907721061e-10
-6.072936965e-11
7.494178317e-10
-7.160637929e-11
8.038458489e-10
-8.297897677e-11
8.542001967e-10
-9.475228464e-11
9.006213496e-10
-1.068316632e-10
9.432468931e-10
-1.19122691e-10
9.822121467e-10
-1.315310378e-10
1.017650081e-09
-1.439627966e-10
1.049692212e-09
-1.563239968e-10
1.078468161e-09
-1.685210609e-10
1.104106448e-09
-1.80460182e-10
1.12673399e-09
-1.920476931e-10
1.146476695e-09
-2.031894646e-10
1.163459094e-09
-2.137910835e-10
1.177804664e-09
-2.2375736e-10
1.18963568e-09
-2.32992324e-10
1.19907349e-09
-2.413990119e-10
1.206238633e-09
-2.488792681e-10
1.211250926e-09
-2.553337167e-10
1.214229879e-09
-2.606619069e-10
1.21529514e-09
-2.647624557e-10
1.214566875e-09
-2.67533607e-10
1.212166462e-09
-2.688741324e-10
1.208217203e-09
-2.686842078e-10
1.202844662e-09
-2.668675749e-10
1.196177944e-09
-2.633334232e-10
1.188350031e-09
-2.579992762e-10
1.179497931e-09
-2.507946616e-10
1.169763663e-09
-2.416648834e-10
1.15929336e-09
-2.305757109e-10
1.148236927e-09
-2.175178832e-10
1.136747183e-09
-2.025118072e-10
1.124977233e-09
-1.856111144e-10
1.113078726e-09
-1.669057084e-10
1.101198302e-09
-1.465221257e-10
1.089474192e-09
-1.246226061e-10
1.078032639e-09
-1.014014058e-10
1.066985087e-09
-7.708007592e-11
1.056426449e-09
-5.190099032e-11
1.046434286e-09
-2.612011538e-11
1.037066215e-09
1.02836009e-09
-8.344351219e-13
5.180013474e-11
-3.271697557e-12
1.515358709e-10
-7.213243407e-12
2.456397463e-10
-1.255664983e-11
3.342753675e-10
-1.919877273e-11
4.176249237e-10
-2.703568374e-11
4.958634742e-10
-3.596297783e-11
5.691588504e-10
-4.587614152e-11
6.376740023e-10
-5.667073597e-11
7.015667006e-10
-6.824250654e-11
7.609896022e-10
-8.048773866e-11
8.16091081e-10
-9.330320518e-11
8.670156633e-10
-1.065861933e-10
9.139043377e-10
-1.20234869e-10
9.568955688e-10
-1.34147874e-10
9.961251517e-10
-1.482247317e-10
1.031726939e-09
-1.623654439e-10
1.063832925e-09
-1.764706954e-10
1.092573413e-09
-1.904414039e-10
1.118077156e-09
-2.041788105e-10
1.140471397e-09
-2.175839308e-10
1.159881815e-09
-2.305574867e-10
1.17643265e-09
-2.429992711e-10
1.190246448e-09
-2.548078976e-10
1.201444306e-09
-2.658801999e-10
1.210145793e-09
-2.761107589e-10
1.216469192e-09
-2.853912563e-10
1.220531423e-09
-2.936101208e-10
1.222448744e-09
-3.006518204e-10
1.22233684e-09
-3.063965594e-10
1.220311614e-09
-3.107202826e-10
1.216490185e-09
-3.134943752e-10
1.210991295e-09
-3.145863883e-10
1.203936675e-09
-3.138610951e-10
1.195452651e-09
-3.111820729e-10
1.185671009e-09
-3.064146471e-10
1.174730505e-09
-2.994295058e-10
1.162778521e-09
-2.901080826e-10
1.149971937e-09
-2.783490755e-10
1.136477919e-09
-2.640762531e-10
1.122474361e-09
-2.472477768e-10
1.108148757e-09
-2.278656674e-10
1.093696617e-09
-2.05984991e-10
1.079317626e-09
-1.817208378e-10
1.065210039e-09
-1.552522482e-10
1.05156405e-09
-1.26820757e-10
1.038553595e-09
-9.672414168e-11
1.026329834e-09
-6.530488621e-11
1.01501503e-09
-3.293456825e-11
1.004695897e-09
9.954255217e-10
-9.31612928e-13
5.273174767e-11
-3.652800284e-12
1.542570583e-10
-8.053391734e-12
2.500403378e-10
-1.40190741e-11
3.402410498e-10
-2.143492205e-11
4.250407717e-10
-3.018535543e-11
5.046139076e-10
-4.015457263e-11
5.791280676e-10
-5.122706164e-11
6.487464913e-10
-6.32878057e-11
7.136274447e-10
-7.622266792e-11
7.739244645e-10
-8.991863642e-11
8.297870495e-10
-1.042637228e-10
8.813607496e-10
-1.191474062e-10
9.287880211e-10
-1.344604573e-10
9.722086198e-10
-1.500950507e-10
1.011759745e-09
-1.659447821e-10
1.047576671e-09
-1.819044434e-10
1.079792586e-09
-1.978700582e-10
1.108539028e-09
-2.137384769e-10
1.133945575e-09
-2.294071947e-10
1.156140115e-09
-2.447739614e-10
1.175248582e-09
-2.597362457e-10
1.191394934e-09
-2.7419074e-10
1.204700943e-09
-2.880326714e-10
1.215286237e-09
-3.01155032e-10
1.223268153e-09
-3.134475975e-10
1.228761758e-09
-3.247961859e-10
1.231880012e-09
-3.350812884e-10
1.232733846e-09
-3.441769572e-10
1.231432509e-09
-3.519498246e-10
1.228084481e-09
-3.582576028e-10
1.222797963e-09
-3.62948018e-10
1.215681711e-09
-3.65857988e-10
1.206846646e-09
-3.668129062e-10
1.196407569e-09
-3.656269485e-10
1.184485051e-09
-3.621040915e-10
1.171207648e-09
-3.560405002e-10
1.15671493e-09
-3.472291198e-10
1.141160556e-09
-3.354666799e-10
1.12471548e-09
-3.205637103e-10
1.107571391e-09
-3.023585909e-10
1.089943637e-09
-2.807351174e-10
1.072073143e-09
-2.556429362e-10
1.054225444e-09
-2.271195399e-10
1.036686643e-09
-1.953095003e-10
1.01975401e-09
-1.604771558e-10
1.003721251e-09
-1.230077939e-10
9.888604718e-10
-8.33911793e-11
9.753984155e-10
-4.218792225e-11
9.634926404e-10
9.532375995e-10
-1.034163259e-12
5.376591092e-11
-4.054934739e-12
1.572778298e-10
-8.939759167e-12
2.549251622e-10
-1.556152998e-11
3.468628207e-10
-2.379267245e-11
4.332719142e-10
-3.350501048e-11
5.143262456e-10
-4.457045926e-11
5.901935163e-10
-5.686160008e-11
6.610376321e-10
-7.025216422e-11
7.270180088e-10
-8.461747883e-11
7.882897791e-10
-9.983455049e-11
8.450041211e-10
-1.157823794e-10
8.973085786e-10
-1.323422605e-10
9.453479022e-10
-1.493975104e-10
9.892638697e-10
-1.668339847e-10
1.02919622e-09
-1.845395482e-10
1.065282234e-09
-2.024044285e-10
1.097657466e-09
-2.203206546e-10
1.126455254e-09
-2.381821286e-10
1.151807049e-09
-2.558839982e-10
1.173841985e-09
-2.733223842e-10
1.192686968e-09
-2.903937539e-10
1.208466304e-09
-3.069942807e-10
1.221301469e-09
-3.230189767e-10
1.231310933e-09
-3.383607242e-10
1.238609901e-09
-3.529092399e-10
1.243310274e-09
-3.665495355e-10
1.245520307e-09
-3.791604387e-10
1.245344749e-09
-3.906128798e-10
1.24288495e-09
-4.007677931e-10
1.238239394e-09
-4.094736356e-10
1.231503805e-09
-4.165639799e-10
1.222772055e-09
-4.218546804e-10
1.212137346e-09
-4.251408654e-10
1.199693754e-09
-4.261941952e-10
1.185538381e-09
-4.247604302e-10
1.169773883e-09
-4.205578411e-10
1.152512341e-09
-4.132772969e-10
1.133880012e-09
-4.025853654e-10
1.114023548e-09
-3.881315783e-10
1.093117604e-09
-3.695620917e-10
1.071374151e-09
-3.465416721e-10
1.049052724e-09
-3.187862642e-10
1.026470036e-09
-2.86106653e-10
1.004007031e-09
-2.484617702e-10
9.821091276e-10
-2.060161292e-10
9.6127561e-10
-1.591849596e-10
9.420293022e-10
-1.086388454e-10
9.248523013e-10
-5.524858656e-11
9.101023815e-10
8.979890129e-10
-1.141423829e-12
5.490733475e-11
-4.475540372e-12
1.606119463e-10
-9.866772985e-12
2.603163948e-10
-1.717424105e-11
3.541702887e-10
-2.625679839e-11
4.423544715e-10
-3.697271975e-11
5.250421669e-10
-4.918063828e-11
6.024014349e-10
-6.27403647e-11
6.745973585e-10
-7.751355943e-11
7.417912036e-10
-9.336412697e-11
8.041403466e-10
-1.101584565e-10
8.617984506e-10
-1.277660431e-10
9.149161652e-10
-1.460593522e-10
9.636412113e-10
-1.649142177e-10
1.008118735e-09
-1.84209727e-10
1.048491729e-09
-2.038283489e-10
1.084900856e-09
-2.236556609e-10
1.117484778e-09
-2.435804002e-10
1.146379993e-09
-2.634939863e-10
1.171720635e-09
-2.832902792e-10
1.193638278e-09
-3.028650497e-10
1.212261738e-09
-3.221154442e-10
1.227716698e-09
-3.409392049e-10
1.24012523e-09
-3.592339065e-10
1.249605635e-09
-3.768958614e-10
1.256271855e-09
-3.938187753e-10
1.260233188e-09
-4.098923153e-10
1.261593847e-09
-4.250003751e-10
1.260452809e-09
-4.390188619e-10
1.256903436e-09
-4.51812967e-10
1.251033499e-09
-4.632341459e-10
1.242924984e-09
-4.731163627e-10
1.232654272e-09
-4.812715001e-10
1.220292484e-09
-4.874840838e-10
1.205906338e-09
-4.915049008e-10
1.189559198e-09
-4.930439486e-10
1.171312931e-09
-4.917625076e-10
1.1512309e-09
-4.872648579e-10
1.129382362e-09
-4.790908718e-10
1.105849562e-09
-4.667107288e-10
1.080737461e-09
-4.495250246e-10
1.054188447e-09
-4.268749062e-10
1.026402605e-09
-3.980697396e-10
9.976648699e-10
-3.624418085e-10
9.683791003e-10
-3.19438851e-10
9.391061702e-10
-2.687592855e-10
9.105960445e-10
-2.105150878e-10
8.837851045e-10
-1.453728934e-10
8.597101069e-10
-7.461106714e-11
8.393405552e-10
8.233779458e-10
-1.252651135e-12
5.615998589e-11
-4.911702301e-12
1.642709975e-10
-1.082812993e-11
2.662328224e-10
-1.884613116e-11
3.6218829e-10
-2.88100618e-11
4.523184021e-10
-4.056366266e-11
5.367957678e-10
-5.395127159e-11
6.157890438e-10
-6.881899256e-11
6.894650794e-10
-8.501539177e-11
7.579876029e-10
-1.023919367e-10
8.215168916e-10
-1.208037127e-10
8.802102265e-10
-1.401097371e-10
9.342221897e-10
-1.601731136e-10
9.837045878e-10
-1.808614854e-10
1.028807107e-09
-2.020468228e-10
1.069677066e-09
-2.23605728e-10
1.106459761e-09
-2.454191042e-10
1.139298154e-09
-2.673721257e-10
1.168333014e-09
-2.893539704e-10
1.193702479e-09
-3.112574141e-10
1.215541721e-09
-3.329784245e-10
1.233982749e-09
-3.544154889e-10
1.249153763e-09
-3.75469178e-10
1.261178919e-09
-3.960410745e-10
1.270177531e-09
-4.160328228e-10
1.276263604e-09
-4.353449985e-10
1.279545363e-09
-4.538756932e-10
1.280124542e-09
-4.715187014e-10
1.278095817e-09
-4.881613731e-10
1.273546108e-09
-5.036819271e-10
1.266554053e-09
-5.179462578e-10
1.257189315e-09
-5.308036831e-10
1.245511697e-09
-5.420816715e-10
1.231570472e-09
-5.515792857e-10
1.215403952e-09
-5.590585065e-10
1.197038419e-09
-5.642333179e-10
1.176487743e-09
-5.667559887e-10
1.153753571e-09
-5.661994832e-10
1.128825856e-09
-5.620359956e-10
1.101686075e-09
-5.536112187e-10
1.072312684e-09
-5.40115911e-10
1.040693139e-09
-5.20557999e-10
1.006844693e-09
-4.937437122e-10
9.708505831e-10
-4.58281767e-10
9.329171551e-10
-4.12633846e-10
8.934582492e-10
-3.552518874e-10
8.532140859e-10
-2.848724563e-10
8.134056733e-10
-2.010438511e-10
7.758815018e-10
-1.048781921e-10
7.431748962e-10
7.184997537e-10
-1.367028874e-12
5.752701476e-11
-5.360119361e-12
1.68264088e-10
-1.181672193e-11
2.72689425e-10
-2.056448716e-11
3.709360552e-10
-3.143240065e-11
4.631863156e-10
-4.424860968e-11
5.496119768e-10
-5.884204052e-11
6.303824746e-10
-7.504388453e-11
7.056669234e-10
-9.268833722e-11
7.756320556e-10
-1.116133909e-10
8.404419452e-10
-1.316616939e-10
9.002585295e-10
-1.526806749e-10
9.552411707e-10
-1.745232892e-10
1.005547202e-09
-1.970478993e-10
1.051331717e-09
-2.201187544e-10
1.092747921e-09
-2.436057053e-10
1.129946712e-09
-2.673843731e-10
1.163076822e-09
-2.913357983e-10
1.19228444e-09
-3.15346325e-10
1.217713006e-09
-3.39307137e-10
1.239502533e-09
-3.631138925e-10
1.257789504e-09
-3.866662296e-10
1.2727061e-09
-4.098669862e-10
1.284379676e-09
-4.326214975e-10
1.292932043e-09
-4.548367945e-10
1.298478901e-09
-4.764205483e-10
1.301129117e-09
-4.972797846e-10
1.300983779e-09
-5.173193922e-10
1.298135425e-09
-5.364403509e-10
1.292667067e-09
-5.545375179e-10
1.28465122e-09
-5.714969062e-10
1.274148703e-09
-5.871919842e-10
1.261206775e-09
-6.014791795e-10
1.245857668e-09
-6.141919154e-10
1.228116688e-09
-6.251322864e-10
1.20797879e-09
-6.340603969e-10
1.185415853e-09
-6.406789288e-10
1.160372103e-09
-6.446122709e-10
1.132759198e-09
-6.453770096e-10
1.102450813e-09
-6.423406348e-10
1.069276309e-09
-6.346635061e-10
1.03301601e-09
-6.212180928e-10
9.933992798e-10
-6.004780445e-10
9.501105348e-10
-5.703718404e-10
9.028109511e-10
-5.281089585e-10
8.511953674e-10
-4.700383444e-10
7.951434717e-10
-3.917112093e-10
7.350785382e-10
-2.884805346e-10
6.726508271e-10
-1.573061486e-10
6.120005101e-10
5.611936051e-10
-1.483113177e-12
5.901012794e-11
-5.816772437e-12
1.725977472e-10
-1.282352861e-11
2.796961812e-10
-2.231327945e-11
3.80425806e-10
-3.409880818e-11
4.749718444e-10
-4.799159352e-11
5.635047622e-10
-6.380394665e-11
6.461948278e-10
-8.1350889e-11
7.232138657e-10
-1.004510817e-10
7.947322483e-10
-1.209280633e-10
8.609189268e-10
-1.426108002e-10
9.219412664e-10
-1.653343759e-10
9.779647464e-10
-1.889404515e-10
1.029153278e-09
-2.132775053e-10
1.075668771e-09
-2.38200923e-10
1.117671339e-09
-2.635731634e-10
1.155318953e-09
-2.892635262e-10
1.188767185e-09
-3.151479788e-10
1.218168892e-09
-3.41108872e-10
1.243673899e-09
-3.670345779e-10
1.265428239e-09
-3.92818975e-10
1.283573901e-09
-4.183608774e-10
1.298248002e-09
-4.435633552e-10
1.309582154e-09
-4.683331214e-10
1.317701809e-09
-4.925796175e-10
1.322725397e-09
-5.162140648e-10
1.324763565e-09
-5.391483517e-10
1.323918066e-09
-5.612937888e-10
1.320280862e-09
-5.82559562e-10
1.31393284e-09
-6.028511603e-10
1.304942818e-09
-6.220678036e-10
1.293365346e-09
-6.401000173e-10
1.279238989e-09
-6.568261809e-10
1.262583832e-09
-6.721078326e-10
1.24339834e-09
-6.857837599e-10
1.221654717e-09
-6.97661792e-10
1.197293886e-09
-7.075068982e-10
1.170217209e-09
-7.150245982e-10
1.140276898e-09
-7.198356611e-10
1.107261876e-09
-7.21438028e-10
1.070878676e-09
-7.191475064e-10
1.030725489e-09
-7.120042977e-10
9.86256071e-10
-6.986241368e-10
9.367303739e-10
-6.769632028e-10
8.811500171e-10
-6.439506185e-10
8.181827832e-10
-5.949060335e-10
7.460988867e-10
-5.225597217e-10
6.627322264e-10
-4.152412818e-10
5.653323872e-10
-2.527189477e-10
4.494781759e-10
3.084746574e-10
-7.451902926e-14
5.908464697e-11
-2.944335323e-13
1.728176617e-10
-6.338651539e-13
2.800356128e-10
-1.067728882e-12
3.808596698e-10
-1.563504177e-12
4.754676196e-10
-2.087418189e-12
5.640286762e-10
-2.60502291e-12
6.467124325e-10
-3.082358809e-12
7.236912015e-10
-3.487335749e-12
7.951372251e-10
-3.79077647e-12
8.612223675e-10
-3.966834334e-12
9.221173243e-10
-3.993928348e-12
9.779918404e-10
-3.854670172e-12
1.029014019e-09
-3.536522136e-12
1.075350623e-09
-3.031393985e-12
1.117166211e-09
-2.335944795e-12
1.154623504e-09
-1.451349243e-12
1.18788259e-09
-3.830460036e-13
1.217100589e-09
8.594248498e-13
1.242431428e-09
2.262640292e-12
1.264025023e-09
3.809561943e-12
1.282026979e-09
5.4797863e-12
1.296577777e-09
7.249689513e-12
1.30781225e-09
9.092685537e-12
1.315858813e-09
1.097922608e-11
1.320838856e-09
1.287700587e-11
1.322865785e-09
1.475080153e-11
1.32204427e-09
1.656247099e-11
1.318469193e-09
1.827088046e-11
1.31222443e-09
1.98314383e-11
1.30338226e-09
2.11959696e-11
1.292000815e-09
2.231177692e-11
1.278123181e-09
2.312109512e-11
1.261774513e-09
2.355987979e-11
1.242959555e-09
2.35561994e-11
1.221658397e-09
2.302825405e-11
1.197821831e-09
2.188090467e-11
1.171364559e-09
2.000182857e-11
1.142155974e-09
1.725622977e-11
1.110007475e-09
1.34803221e-11
1.074654584e-09
8.474659189e-12
1.035731151e-09
2.000168715e-12
9.927305613e-10
-6.217117415e-12
9.449476599e-10
-1.645527213e-11
8.913881718e-10
-2.889435646e-11
8.306218674e-10
-4.332082111e-11
7.605253513e-10
-5.83757944e-11
6.777871997e-10
-6.980364416e-11
5.76760237e-10
-6.58183578e-11
4.454928895e-10
2.426562996e-10
-1.439123297e-13
5.922855929e-11
-5.637433704e-13
1.732374927e-10
-1.226108223e-12
2.806979776e-10
-2.096419869e-12
3.817299814e-10
-3.133215397e-12
4.765044153e-10
-4.293228604e-12
5.651886895e-10
-5.532609704e-12
6.479518136e-10
-6.808211872e-12
7.249668037e-10
-8.079109376e-12
7.964081226e-10
-9.307403793e-12
8.62450662e-10
-1.045910007e-11
9.232690205e-10
-1.150469878e-11
9.79037439e-10
-1.241951413e-11
1.029928835e-09
-1.318384776e-11
1.076114956e-09
-1.378321193e-11
1.117765575e-09
-1.420797181e-11
1.155048264e-09
-1.445336733e-11
1.188127985e-09
-1.451934743e-11
1.217166569e-09
-1.441000938e-11
1.242322089e-09
-1.413358309e-11
1.263748597e-09
-1.370190339e-11
1.281595299e-09
-1.313018839e-11
1.296006062e-09
-1.243671792e-11
1.30711878e-09
-1.164265057e-11
1.315064745e-09
-1.077163631e-11
1.319967842e-09
-9.849703146e-12
1.321943852e-09
-8.905198421e-12
1.321099765e-09
-7.968692863e-12
1.317532687e-09
-7.072905281e-12
1.311328643e-09
-6.252648896e-12
1.302562004e-09
-5.545019097e-12
1.291293185e-09
-4.989599962e-12
1.277567762e-09
-4.628324416e-12
1.261413238e-09
-4.505709508e-12
1.24283694e-09
-4.668954624e-12
1.221821642e-09
-5.167853352e-12
1.19832073e-09
-6.054615212e-12
1.17225132e-09
-7.383288802e-12
1.143484648e-09
-9.208864795e-12
1.111833051e-09
-1.158536077e-11
1.07703108e-09
-1.456296776e-11
1.038708758e-09
-1.818217339e-11
9.96349767e-10
-2.246232904e-11
9.492278155e-10
-2.737501945e-11
8.963008622e-10
-3.278047232e-11
8.360273204e-10
-3.827474501e-11
7.66019624e-10
-4.27898179e-11
6.823022724e-10
-4.338948717e-11
5.773599061e-10
-3.203547562e-11
4.341388779e-10
2.10620824e-10
-2.103739453e-13
5.943893324e-11
-8.226183011e-13
1.738497371e-10
-1.796096516e-12
2.816714559e-10
-3.086331226e-12
3.830202162e-10
-4.64294408e-12
4.780610282e-10
-6.413328309e-12
5.669590738e-10
-8.344192014e-12
6.498826773e-10
-1.038321555e-11
7.270058273e-10
-1.248049437e-11
7.985054018e-10
-1.458936626e-11
8.645595341e-10
-1.66676006e-11
9.253472549e-10
-1.867763408e-11
9.810474725e-10
-2.058734533e-11
1.031838546e-09
-2.23698531e-11
1.077897464e-09
-2.400387788e-11
1.1193996e-09
-2.54735079e-11
1.156517893e-09
-2.676789009e-11
1.189422367e-09
-2.788107968e-11
1.218279759e-09
-2.88116836e-11
1.243252693e-09
-2.956247598e-11
1.26449939e-09
-3.013992937e-11
1.282172754e-09
-3.055393402e-11
1.296420067e-09
-3.081737241e-11
1.307382218e-09
-3.094587277e-11
1.315193246e-09
-3.095740644e-11
1.319979375e-09
-3.087214597e-11
1.321858591e-09
-3.071212069e-11
1.32093974e-09
-3.050137966e-11
1.317321946e-09
-3.026566891e-11
1.311092932e-09
-3.003246847e-11
1.302328804e-09
-2.983105573e-11
1.291091772e-09
-2.969266814e-11
1.277429374e-09
-2.965057624e-11
1.261371146e-09
-2.973996251e-11
1.242926327e-09
-2.999830686e-11
1.222079987e-09
-3.046517728e-11
1.1987876e-09
-3.118158977e-11
1.172967733e-09
-3.218891742e-11
1.144491976e-09
-3.352627049e-11
1.113170404e-09
-3.522530813e-11
1.078730117e-09
-3.730016038e-11
1.040783611e-09
-3.972949859e-11
9.987791054e-10
-4.242351645e-11
9.519218335e-10
-4.516458621e-11
8.990419319e-10
-4.750163439e-11
8.383643685e-10
-4.855884096e-11
7.670768305e-10
-4.667837329e-11
6.804218046e-10
-3.892351873e-11
5.696050513e-10
-2.184727249e-11
4.170626315e-10
1.887735514e-10
-2.732808842e-13
5.971221414e-11
-1.068292674e-12
1.746447489e-10
-2.336865674e-12
2.829400289e-10
-4.025174258e-12
3.847085247e-10
-6.073835847e-12
4.801096896e-10
-8.420914126e-12
5.693061521e-10
-1.100371383e-11
6.524654771e-10
-1.376064351e-11
7.297627568e-10
-1.663253033e-11
8.013772884e-10
-1.956380761e-11
8.674908113e-10
-2.25035484e-11
9.282869956e-10
-2.540587743e-11
9.839498017e-10
-2.823059142e-11
1.03466326e-09
-3.094325106e-11
1.080610124e-09
-3.351515676e-11
1.121971505e-09
-3.592332198e-11
1.158926059e-09
-3.815023486e-11
1.19164928e-09
-4.018337486e-11
1.220312899e-09
-4.201500768e-11
1.245084327e-09
-4.364161447e-11
1.266125996e-09
-4.506353873e-11
1.283594678e-09
-4.628451957e-11
1.297641048e-09
-4.731131328e-11
1.308409012e-09
-4.815318324e-11
1.316035116e-09
-4.882170627e-11
1.320647898e-09
-4.933058454e-11
1.322367469e-09
-4.969517361e-11
1.321304329e-09
-4.993243165e-11
1.317559204e-09
-5.006101644e-11
1.311221517e-09
-5.010099821e-11
1.302368785e-09
-5.007396656e-11
1.291064741e-09
-5.000303174e-11
1.27735844e-09
-4.99129232e-11
1.261281037e-09
-4.982989479e-11
1.242843298e-09
-4.978159888e-11
1.222031691e-09
-4.979661021e-11
1.198802612e-09
-4.990350947e-11
1.173074632e-09
-5.012920917e-11
1.144717675e-09
-5.049520326e-11
1.113536398e-09
-5.101145047e-11
1.079246364e-09
-5.166429467e-11
1.041436455e-09
-5.239559079e-11
9.995104013e-10
-5.306509748e-11
9.525913401e-10
-5.338606397e-11
8.993628983e-10
-5.281758985e-11
8.377958943e-10
-5.039760905e-11
7.646568497e-10
-4.455887581e-11
6.745830715e-10
-3.329595849e-11
5.583421341e-10
-1.60634849e-11
3.998301579e-10
1.727100665e-10
-3.321052181e-13
6.004431936e-11
-1.298442481e-12
1.756110861e-10
-2.843329463e-12
2.844849158e-10
-4.904199528e-12
3.867693948e-10
-7.412838824e-12
4.826183289e-10
-1.029818907e-11
5.721915021e-10
-1.348840015e-11
6.556556881e-10
-1.691269055e-11
7.331870473e-10
-2.050270572e-11
8.049673036e-10
-2.419406265e-11
8.711821682e-10
-2.792699755e-11
9.320199306e-10
-3.164736336e-11
9.876701675e-10
-3.530669319e-11
1.03832259e-09
-3.886280421e-11
1.084166235e-09
-4.227953708e-11
1.125388238e-09
-4.55266542e-11
1.162173176e-09
-4.857965036e-11
1.194702276e-09
-5.141942215e-11
1.223152671e-09
-5.403175087e-11
1.247696655e-09
-5.640682782e-11
1.268501073e-09
-5.853889881e-11
1.285726748e-09
-6.042573595e-11
1.299527885e-09
-6.206821602e-11
1.310051492e-09
-6.346988612e-11
1.317436786e-09
-6.463667706e-11
1.32181469e-09
-6.557658888e-11
1.323307382e-09
-6.629961918e-11
1.322027359e-09
-6.681727046e-11
1.318076855e-09
-6.71429668e-11
1.311547213e-09
-6.729154065e-11
1.302517359e-09
-6.72795655e-11
1.291052765e-09
-6.712493937e-11
1.277203814e-09
-6.684710583e-11
1.261003204e-09
-6.646683415e-11
1.242463027e-09
-6.600558712e-11
1.221570444e-09
-6.54847314e-11
1.198281756e-09
-6.492399361e-11
1.172513894e-09
-6.433861948e-11
1.144132301e-09
-6.373476155e-11
1.11293254e-09
-6.310121735e-11
1.07861282e-09
-6.239558754e-11
1.040730825e-09
-6.152062326e-11
9.98635437e-10
-6.028607584e-11
9.513567926e-10
-5.834961769e-11
8.974264401e-10
-5.513640338e-11
8.345826799e-10
-4.976161297e-11
7.592820593e-10
-4.107091521e-11
6.658923736e-10
-2.815516551e-11
5.454263843e-10
-1.213195012e-11
3.838069424e-10
1.605781164e-10
-3.863718835e-13
6.043069124e-11
-1.510968629e-12
1.767356829e-10
-3.310870625e-12
2.862848178e-10
-5.715403197e-12
3.891739273e-10
-8.64788591e-12
4.855508116e-10
-1.202857238e-11
5.755721886e-10
-1.577681936e-11
6.594039351e-10
-1.981289523e-11
7.372231233e-10
-2.405965909e-11
8.092140676e-10
-2.844406431e-11
8.755665735e-10
-3.289784186e-11
9.364737083e-10
-3.735859744e-11
9.921309231e-10
-4.177000172e-11
1.042733994e-09
-4.608206927e-11
1.088478302e-09
-5.025132429e-11
1.129557493e-09
-5.424051094e-11
1.166162363e-09
-5.801838238e-11
1.198480148e-09
-6.155932437e-11
1.226693613e-09
-6.484290745e-11
1.250980238e-09
-6.785344977e-11
1.271511616e-09
-7.057951954e-11
1.288452818e-09
-7.301344114e-11
1.301961806e-09
-7.515084373e-11
1.312188894e-09
-7.699037019e-11
1.319276312e-09
-7.853330245e-11
1.323357622e-09
-7.978306081e-11
1.32455714e-09
-8.074544457e-11
1.322989744e-09
-8.142801133e-11
1.318759422e-09
-8.184031835e-11
1.31195952e-09
-8.199366221e-11
1.302670703e-09
-8.190105703e-11
1.290960161e-09
-8.15769732e-11
1.27687973e-09
-8.103729059e-11
1.260463521e-09
-8.029889142e-11
1.241724628e-09
-7.937887577e-11
1.220650428e-09
-7.829344422e-11
1.197196324e-09
-7.705593353e-11
1.171276384e-09
-7.567342299e-11
1.142749791e-09
-7.414134589e-11
1.111400463e-09
-7.243378284e-11
1.076905257e-09
-7.048851912e-11
1.038785561e-09
-6.818223304e-11
9.963291509e-10
-6.529420928e-11
9.48468769e-10
-6.145914883e-11
8.935913797e-10
-5.612373355e-11
8.292472646e-10
-4.855733271e-11
7.517156584e-10
-3.803818073e-11
6.553732216e-10
-2.445723764e-11
5.318454411e-10
-9.709954644e-12
3.690596594e-10
1.508681618e-10
-4.356490973e-13
6.086634034e-11
-1.70396974e-12
1.780040035e-10
-3.735315853e-12
2.88316164e-10
-6.451550501e-12
3.91890162e-10
-9.768136291e-12
4.888673976e-10
-1.359720834e-11
5.794012609e-10
-1.784979742e-11
6.636565243e-10
-2.243774257e-11
7.418110683e-10
-2.727568277e-11
8.140520076e-10
-3.228221554e-11
8.805731063e-10
-3.738120333e-11
9.41572696e-10
-4.250223894e-11
9.972519586e-10
-4.75815534e-11
1.047813309e-09
-5.256191461e-11
1.093458663e-09
-5.739280234e-11
1.134388381e-09
-6.203030959e-11
1.17079987e-09
-6.643694565e-11
1.202886784e-09
-7.058105639e-11
1.230837723e-09
-7.443655628e-11
1.254835738e-09
-7.798240136e-11
1.275057461e-09
-8.120215531e-11
1.291672573e-09
-8.408346557e-11
1.304843117e-09
-8.661760219e-11
1.314723031e-09
-8.87990937e-11
1.321457804e-09
-9.062548636e-11
1.325184015e-09
-9.209691024e-11
1.326028564e-09
-9.321587955e-11
1.324108713e-09
-9.398718946e-11
1.319530732e-09
-9.441773563e-11
1.312390066e-09
-9.451635508e-11
1.302769323e-09
-9.429364865e-11
1.290737454e-09
-9.376170512e-11
1.276347786e-09
-9.293388481e-11
1.259635701e-09
-9.182414605e-11
1.240614889e-09
-9.044615581e-11
1.219272438e-09
-8.881193623e-11
1.195562104e-09
-8.692943256e-11
1.16939388e-09
-8.47989233e-11
1.140619281e-09
-8.240647652e-11
1.109008016e-09
-7.971425097e-11
1.074213032e-09
-7.664451256e-11
1.035715823e-09
-7.305657835e-11
9.927412168e-10
-6.871593062e-11
9.441281212e-10
-6.326510189e-11
8.88140551e-10
-5.621967268e-11
8.222018354e-10
-4.704356743e-11
7.425395531e-10
-3.539696068e-11
6.437266149e-10
-2.169318342e-11
5.181416639e-10
-8.112035069e-12
3.554785111e-10
1.427561267e-10
-4.795394223e-13
6.134587978e-11
-1.875842955e-12
1.794003071e-10
-4.113174091e-12
2.905534951e-10
-7.106697289e-12
3.948836852e-10
-1.076477878e-11
4.92525479e-10
-1.49921227e-11
5.836286046e-10
-1.969209141e-11
6.683564928e-10
-2.476889489e-11
7.468878718e-10
-3.012956418e-11
8.19412677e-10
-3.568507816e-11
8.861286201e-10
-4.135192759e-11
9.472395453e-10
-4.705257748e-11
1.002952608e-09
-5.271616543e-11
1.053476897e-09
-5.827888659e-11
1.099021385e-09
-6.368385788e-11
1.139793352e-09
-6.888115701e-11
1.175997169e-09
-7.382747006e-11
1.207833097e-09
-7.848583446e-11
1.235496088e-09
-8.282514059e-11
1.259175045e-09
-8.681969641e-11
1.279052017e-09
-9.044872032e-11
1.295301596e-09
-9.369580806e-11
1.308090205e-09
-9.654870815e-11
1.317575931e-09
-9.899867609e-11
1.323907772e-09
-1.010401876e-10
1.327225526e-09
-1.026708067e-10
1.327659183e-09
-1.038906098e-10
1.325328516e-09
-1.047022889e-10
1.320342411e-09
-1.051107843e-10
1.312798562e-09
-1.051230349e-10
1.302781573e-09
-1.047478141e-10
1.290362233e-09
-1.039954646e-10
1.275595437e-09
-1.028773167e-10
1.258517553e-09
-1.014049973e-10
1.239142569e-09
-9.958947227e-11
1.217456913e-09
-9.743934186e-11
1.193411974e-09
-9.495831319e-11
1.166912851e-09
-9.214095673e-11
1.137801925e-09
-8.896595551e-11
1.105833015e-09
-8.538617755e-11
1.070633254e-09
-8.131287083e-11
1.031642516e-09
-7.659550203e-11
9.880238478e-10
-7.099975344e-11
9.385323725e-10
-6.419775853e-11
8.813385561e-10
-5.579765919e-11
8.138017361e-10
-4.545692978e-11
7.321988238e-10
-3.313847667e-11
6.314081617e-10
-1.957606013e-11
5.045792473e-10
-6.996730417e-12
3.428991814e-10
1.357593963e-10
-5.177181537e-13
6.186359794e-11
-2.025326846e-12