/*--------------------------------*- C++ -*----------------------------------*\
  =========                 |
  \\      /  F ield         | OpenFOAM: The Open Source CFD Toolbox
   \\    /   O peration     | Website:  https://openfoam.org
    \\  /    A nd           | Version:  7
     \\/     M anipulation  |
\*---------------------------------------------------------------------------*/
FoamFile
{
    version     2.0;
    format      ascii;
    class       volScalarField;
    location    "0.0003";
    object      rho;
}
// * * * * * * * * * * * * * * * * * * * * * * * * * * * * * * * * * * * * * //

dimensions      [1 -3 0 0 0 0 0];

internalField   nonuniform List<scalar> 
1167
(
950.702092
950.6759457
950.5899108
950.5633376
950.5064209
950.4223828
950.3130843
950.1801698
950.0252745
949.8499329
949.6554216
949.4430835
949.2144801
948.9706162
948.7126456
948.4419745
948.1593301
947.865976
947.5627416
947.2505655
946.9303465
946.6027969
946.2688146
945.928964
945.5840864
945.2347097
944.8815513
944.5251406
944.1660641
943.8049352
943.4421921
943.078555
942.7143009
942.3503027
941.9867522
941.6245009
941.2638218
940.905471
940.5498704
940.1976343
939.8492505
939.5052157
939.1660647
938.8321558
938.5039607
938.181689
937.8656296
937.5558725
937.2524733
936.9554005
936.6643549
936.3792505
950.4785296
950.4514578
950.3934748
950.3078584
950.1964972
950.0610982
949.9033626
949.7246219
949.5262894
949.3098584
949.0766486
948.8277189
948.5644601
948.2878715
947.9989495
947.6989154
947.3883878
947.0686484
946.7401039
946.4039359
946.0604863
945.7108407
945.3552741
944.9948059
944.6296649
944.2607119
943.8883138
943.5131386
943.135728
942.75654
942.3763552
941.9954895
941.6148507
941.2348038
940.8561748
940.4796292
940.1058113
939.7356193
939.3695654
939.0087556
938.6535917
938.3050838
937.9636344
937.6300245
937.3045526
936.987744
936.6795467
936.3801993
936.0892496
935.8066427
950.3678298
950.3401803
950.2809613
950.1935132
950.0797694
949.9415836
949.7803847
949.5976654
949.3948711
949.1736102
948.9348986
948.6800235
948.410337
948.1266416
947.8302659
947.5219548
947.2027482
946.8734168
946.5347945
946.1875799
945.832504
945.4701346
945.101227
944.7261261
944.3456872
943.9601202
943.5702254
943.1763558
942.7790664
942.3790431
941.9766511
941.5727632
941.1678557
940.7626885
940.3582245
939.9550755
939.5543941
939.1570797
938.7641857
938.3770389
937.9965428
937.6241312
937.2607642
936.9076562
936.5656686
936.2355948
935.9179489
935.6129897
935.3205733
935.0404085
950.2576956
950.229382
950.1687411
950.0791993
949.9628407
949.8212617
949.6560521
949.4687134
949.2608805
949.0337864
948.788619
948.5268539
948.2494105
947.9574032
947.651942
947.3337468
947.0039389
946.6630034
946.3119782
945.9512328
945.5816204
945.2035605
944.817627
944.4243665
944.024055
943.6174839
943.204791
942.7865449
942.3633073
941.9354059
941.5035661
941.0683489
940.6303612
940.1906019
939.7498396
939.3090476
938.8695986
938.4327163
937.9998095
937.5727124
937.1530843
936.7427706
936.3439543
935.9583185
935.587897
935.2342696
934.8987574
934.5822358
934.2849699
934.0065817
950.1480157
950.1189441
950.0567264
949.9648877
949.8453685
949.6998979
949.5300785
949.3375221
949.1237326
948.889874
948.6373271
948.367347
948.0808008
947.7790728
947.4627468
947.1329642
946.7902604
946.4355926
946.069309
945.6923168
945.3047929
944.9074795
944.5005909
944.0845037
943.6597496
943.22642
942.7849566
942.3357511
941.8790064
941.4151863
940.9448711
940.4684541
939.9865916
939.5002117
939.0101856
938.5176177
938.0238904
937.5307765
937.04011
936.554088
936.0752727
935.6067449
935.1514976
934.7129009
934.2946143
933.8998264
933.5315624
933.1923066
932.8832883
932.6048323
950.0387569
950.0088681
949.9448516
949.8502788
949.7271662
949.5772633
949.4021975
949.2037217
948.9830071
948.7413626
948.4803491
948.2007643
947.9038424
947.5905185
947.261609
946.9179768
946.5602169
946.18898
945.80479
945.4079719
944.9991595
944.578358
944.1459812
943.7022438
943.2471774
942.7810402
942.3040011
941.8160678
941.3174019
940.8083594
940.2891473
939.7600589
939.2215928
938.6744192
938.1194987
937.5578493
936.9909044
936.42045
935.8487246
935.2785223
934.7132477
934.1570139
933.6145844
933.0914366
932.5936724
932.1277571
931.7003428
931.317067
930.9824187
930.6984955
949.9298285
949.8989729
949.8328831
949.7352261
949.6080546
949.4531368
949.2722882
949.0668974
948.8382928
948.5879535
948.3170087
948.0264274
947.7174932
947.3907109
947.0472624
946.6873923
946.3120564
945.9213848
945.5159382
945.0959679
944.661523
944.2129598
943.7501437
943.2730304
942.7816703
942.2759596
941.7556709
941.2206712
940.6708544
940.1062458
939.5266921
938.9322326
938.3230448
937.6994368
937.061952
936.4114079
935.7489397
935.0761886
934.3953635
933.7093896
933.0221591
932.338718
931.6654587
931.0104367
930.3834276
929.7960294
929.2612746
928.792663
928.4026612
928.0998446
949.8210572
949.7891187
949.7207063
949.6195914
949.4878636
949.3274276
949.1399233
948.9267259
948.6892569
948.4289722
948.1467199
947.8437861
947.5208888
947.1789262
946.8184354
946.4401003
946.0440803
945.6310341
945.2008249
944.7536184
944.2895187
943.8082172
943.3095295
942.7933021
942.2591165
941.7065067
941.1350204
940.5441948
939.9335463
939.3025443
938.6507377
937.97771
937.2830612
936.5666022
935.828191
935.0679817
934.2864272
933.4843658
932.6634354
931.825811
930.9747953
930.1152949
929.2543436
928.4015236
927.5702471
926.7786007
926.049879
925.4130187
924.9004723
924.5427221
949.7123601
949.6792151
949.6082157
949.5032465
949.3664993
949.1998746
949.0048548
948.7828997
948.5355995
948.2639498
947.96905
947.6519819
947.313326
946.953967
946.5742102
946.174537
945.7551861
945.3161184
944.8575343
944.3791202
943.8805575
943.3614814
942.8215635
942.2600374
941.676227
941.0693698
940.4386544
939.7831877
939.1019993
938.3941232
937.6585291
936.8941761
936.1000107
935.2751286
934.418487
933.529098
932.6064235
931.6498325
930.6591772
929.6347169
928.5777709
927.4906256
926.3777592
925.2468009
924.1102994
922.9887679
921.9152527
920.9409071
920.141191
919.6167289
949.6036662
949.569181
949.4953153
949.3861113
949.2438557
949.0702358
948.8668507
948.6352674
948.3768248
948.0924503
947.783473
947.4503835
947.0941473
946.7149479
946.3135353
945.8897268
945.4436973
944.9754309
944.4844678
943.9704147
943.4328338
942.8710036
942.2840498
941.6710523
941.0309683
940.3626815
939.6649388
938.9363898
938.1756274
937.3811013
936.5514181
935.6846449
934.7789883
933.8327869
932.8437705
931.8101274
930.7293455
929.5991198
928.4170032
927.1802468
925.8859751
924.5313751
923.1137923
921.6316489
920.0852676
918.4807616
916.8369083
915.2015048
913.6876609
912.5568677
949.4989249
949.4635046
949.3876259
949.2754598
949.1291051
948.9503523
948.7407681
948.5020485
948.2351139
947.9411456
947.621105
947.2755764
946.9052388
946.5103676
946.0911023
945.6476615
945.1796733
944.686842
944.1688716
943.6249634
943.0543357
942.4560661
941.8291133
941.1722749
940.4842631
939.7636511
939.0088678
938.2182803
937.3900685
936.5226064
935.6135798
934.6609215
933.6623683
932.6153419
931.5171264
930.3647835
929.154765
927.8833342
926.5459943
925.1374222
923.6511815
922.0791379
920.410623
918.6313004
916.7208325
914.648705
912.3670168
909.7972181
906.8043071
903.1498875
949.3970807
949.3611075
949.2839589
949.1697522
949.0206497
948.8384145
948.6247215
948.3809144
948.10798
947.8072072
947.47911
947.1245341
946.7436595
946.3370567
945.9044634
945.4459134
944.9611988
944.4496907
943.9107902
943.3437468
942.7477062
942.1215359
941.4640095
940.7738063
940.0495233
939.2896461
938.492512
937.6563079
936.7791504
935.8592164
934.8942226
933.8820163
932.8200784
931.7060873
930.5369783
929.3096602
928.0208122
926.6665354
925.2423156
923.7429024
922.1621979
920.4924016
918.7242547
916.8456655
914.8409953
912.6899143
910.3650453
907.829945
905.0350467
901.9110497
949.2937763
949.2571355
949.1785254
949.0621024
948.9100196
948.7240281
948.5058656
948.2565522
947.9772578
947.6690343
947.3323518
946.9680009
946.5760569
946.1567734
945.7101194
945.2357311
944.733269
944.2022489
943.6417909
943.051023
942.428915
941.7743227
941.0859465
940.3624228
939.6022351
938.8037831
937.9654939
937.0856069
936.1621645
935.1933842
934.1771096
933.1113488
931.9937865
930.8220696
929.5937119
928.3060281
926.956113
925.5407957
924.0564993
922.4991179
920.8644113
919.1470377
917.3411639
915.4398876
913.4351825
911.3177734
909.0769958
906.7007366
904.175369
901.4843843
949.1888008
949.1514074
949.0711622
948.9522675
948.7968678
948.606844
948.3835751
948.128177
947.8419347
947.5254618
947.179508
946.804375
946.4004577
945.9675392
945.5056852
945.014479
944.4933236
943.9415629
943.358397
942.7429227
942.0939594
941.4102814
940.6905853
939.9336001
939.1377227
938.3014406
937.4230966
936.501307
935.5340903
934.5199019
933.4567494
932.343139
931.176996
929.9563892
928.6794384
927.3442047
925.9485252
924.490274
922.9672517
921.3771619
919.7175178
917.9858622
916.1797382
914.2965128
912.3337664
910.2894019
908.1614583
905.948832
903.6508724
901.267296
949.0820716
949.043843
948.9617881
948.8401631
948.6811818
948.4866319
948.2577555
947.9957831
947.7018544
947.3764161
947.0203821
946.6337092
946.2167958
945.7694398
945.2913417
944.7822139
944.2414192
943.6681411
943.061513
942.4205248
941.7440725
941.0309265
940.2798309
939.4894046
938.6583067
937.7852387
936.8685717
935.9069863
934.898992
933.8431803
932.7380324
931.5823687
930.3747012
929.1136727
927.7981425
926.4268715
924.998766
923.5129397
921.968308
920.3642714
918.7002294
916.9760387
915.1915605
913.3472694
911.4442343
909.4840188
907.4689582
905.4022692
903.2876693
901.1289496
948.9735113
948.9343675
948.8503321
948.7257382
948.5629109
948.3633406
948.1283681
947.8593552
947.5570161
947.2220968
946.8550357
946.456134
946.0252595
945.5625662
945.0675058
944.5395798
943.9781567
943.3825046
942.7517124
942.0847162
941.3804057
940.6376927
939.8553953
939.0321962
938.1668794
937.2582911
936.305265
935.3064891
934.2609985
933.1676292
932.0254349
930.8335309
929.5911475
928.2976414
926.9525241
925.5554707
924.1063076
922.604983
921.0519375
919.4477253
917.793328
916.0899375
914.3394901
912.544161
910.7068477
908.8309875
906.9206572
904.9804277
903.0151412
901.0293174
948.8630466
948.8229104
948.736729
948.609063
948.4419245
948.2369348
947.9954848
947.7188069
947.4074512
947.062389
946.6836211
946.2716924
945.8263038
945.3472687
944.8344202
944.2870345
943.7044356
943.0858463
942.4303692
941.737041
941.0048104
940.232643
939.4194236
938.5642478
937.6659997
936.7236081
935.7364249
934.703303
933.6237268
932.4969759
931.3225578
930.1000875
928.8294245
927.5106558
926.143907
924.7296356
923.2684775
921.7614393
920.2099002
918.6152697
916.9798112
915.3056579
913.5956701
911.8533396
910.0822916
908.2867353
906.4712704
904.6406913
902.7996699
900.9523176
948.7506084
948.7094429
948.6210755
948.489945
948.3181839
948.1073924
947.8591112
947.5741651
947.2533945
946.897394
946.5064487
946.0806004
945.6199938
945.1241605
944.592709
944.0250971
943.4207518
942.7787872
942.0983589
941.3785531
940.6185404
939.8173946
938.9741353
938.0879318
937.1581888
936.1840411
935.1650088
934.1004713
932.990329
931.8342726
930.6322766
929.3844995
928.0914509
926.7537385
925.3721721
923.9478952
922.4822151
920.9770494
919.4342016
917.8561432
916.2455009
914.6053738
912.9390281
911.2505208
909.5437431
907.8230592
906.093014
904.3581869
902.6227192
900.8900487
948.6362679
948.5939851
948.5031618
948.3683405
948.1916605
947.9748229
947.7191737
947.425477
947.0947883
946.7272448
946.3235165
945.8833261
945.4066717
944.8934273
944.3429692
943.754776
943.1282211
942.4625822
941.7571017
941.0109713
940.2234401
939.3937238
938.5213479
937.6055447
936.6458561
935.6420118
934.5936621
933.500717
932.363444
931.1819774
929.9567575
928.6885443
927.3783305
926.0272057
924.6366269
923.2082303
921.7440623
920.2463986
918.7176355
917.1607976
915.5788079
913.9752147
912.3535588
910.7180052
909.0723858
907.4210033
905.7681624
904.1177514
902.4733743
900.8380621
948.5198479
948.4763618
948.3829386
948.244213
948.0623354
947.8391796
947.5757049
947.27296
946.9317169
946.5523233
946.1350498
945.6800238
945.1869623
944.6556101
944.0856326
943.4764785
942.8275085
942.1380939
941.4075688
940.6353631
939.8209325
938.9636269
938.0630304
937.1190528
936.1312622
935.0998388
934.0247068
932.9063321
931.7452507
930.5420654
929.2976947
928.0134151
926.6906094
925.3308868
923.936166
922.508511
921.0504821
919.5646135
918.0537769
916.5212399
914.9701803
913.4042186
911.8270622
910.2426359
908.6547377
907.067456
905.4843687
903.9091963
902.3448089
900.7936259
948.4012721
948.3565202
948.2603624
948.1175333
947.930378
947.7004165
947.4287523
947.1166049
946.7643132
946.372623
945.941437
945.4709771
944.961105
944.4114327
943.8216046
943.1911859
942.5196692
941.8065405
941.0512682
940.2534117
939.4125438
938.5285708
937.6011922
936.6304191
935.616472
934.5595957
933.4602153
932.319295
931.1375543
929.9160805
928.6562963
927.3598432
926.0284574
924.6642177
923.2693473
921.846352
920.3980578
918.9272564
917.437024
915.9307514
914.4117625
912.8835815
911.3500221
909.8145246
908.2809719
906.7526942
905.2333228
903.7255676
902.2322292
900.7549508
948.2804877
948.2344122
948.1353954
947.9883793
947.7956155
947.5585612
947.2785196
946.9564646
946.5928946
946.1883388
945.7429611
945.2566976
944.7295066
944.1612103
943.5513736
942.8996321
942.205594
941.4688678
940.6891156
939.8662757
938.9999887
938.0902505
937.1373944
936.141516
935.1032658
934.0231171
932.9020783
931.7412559
930.5418204
929.3052597
928.0334097
926.7281983
925.391742
924.0264372
922.6347695
921.2195321
919.7836922
918.3303066
916.8625107
915.3836538
913.8971586
912.4063826
910.9149864
909.4262164
907.943444
906.4700085
905.0086571
903.5620819
902.1323479
900.7208066
948.1574462
948.1099941
948.0080783
947.8567167
947.6580546
947.4136508
947.124996
946.7926569
946.4175404
945.9997588
945.5398057
945.0375609
944.4929062
943.905681
943.2756692
942.6026008
941.886224
941.1262968
940.3226928
939.475347
938.5844754
937.6503393
936.6732606
935.6540388
934.5933106
933.4920862
932.3517625
931.1736117
929.9592261
928.7105127
927.4295859
926.1186212
924.7800897
923.4165725
922.0308316
920.6257901
919.2045329
917.7702444
916.3260222
914.875159
913.421066
911.9669552
910.5160445
909.0716252
907.6366304
906.213842
904.8059337
903.4150506
902.0428013
900.6903164
920.063121
918.6579822
917.2439199
915.8239595
914.4012904
912.9790351
911.5605445
910.148607
908.7461274
907.3558343
905.980318
904.6216652
903.2817282
901.9618312
900.6628359
)
;

boundaryField
{
    front_top
    {
        type            wedge;
    }
    front_middle
    {
        type            wedge;
    }
    front_bottom
    {
        type            wedge;
    }
    back_top
    {
        type            wedge;
    }
    back_middle
    {
        type            wedge;
    }
    back_bottom
    {
        type            wedge;
    }
    axis_top
    {
        type            symmetryPlane;
    }
    axis_middle
    {
        type            symmetryPlane;
    }
    axis_bottom
    {
        type            symmetryPlane;
    }
    wall_top
    {
        type            calculated;
        value           nonuniform List<scalar> 10(936.238324 935.6680899 934.9049712 933.8754069 932.4793131 930.5806115 927.9922575 924.4489931 919.542029 912.509091);
    }
    wall_middle
    {
        type            calculated;
        value           uniform 900.0184441;
    }
    wall_bottom
    {
        type            calculated;
        value           nonuniform 0();
    }
    inlet
    {
        type            calculated;
        value           nonuniform 0();
    }
    outlet
    {
        type            calculated;
        value           nonuniform 0();
    }
    procBoundary5to4
    {
        type            processor;
        value           nonuniform List<scalar> 
51
(
948.0321435
947.9833342
947.8784161
947.7224612
947.5177113
947.2658905
946.9682111
946.625432
946.2383666
945.8072759
945.3323421
944.8138382
944.2515833
943.6454553
942.9953279
942.3010592
941.5625429
940.7797299
939.9528152
939.0819874
938.1675286
937.2101056
936.2104188
935.1694042
934.0880859
932.967994
931.8105678
930.617509
929.3907348
928.1324981
926.8451247
925.5310572
924.1929997
922.8336773
921.4560622
921.4560622
919.5295897
918.1417613
916.748557
915.3531611
913.9585113
912.5676107
911.1834021
909.8086283
908.4459685
907.0977505
905.7661561
904.4530616
903.1600363
901.8880965
900.6378786
)
;
    }
    procBoundary5to6
    {
        type            processor;
        value           nonuniform List<scalar> 
51
(
950.8152604
950.7894397
950.6199411
950.6199411
950.5372518
950.4297132
950.2989495
950.1464868
949.9739449
949.7826597
949.5738856
949.3489898
949.109348
948.8558954
948.5899397
948.31251
948.0244956
947.7271575
947.4210625
947.1074301
946.7867528
946.4600933
946.1279345
945.7911984
945.4503394
945.1062124
944.7591714
944.4100468
944.0591019
943.7071993
943.3544947
943.0018704
942.6494305
942.2979878
941.9477231
941.5993119
941.2529969
940.9093635
940.5686951
940.2314702
939.8979329
939.5684786
939.2433073
938.9227286
938.6068109
938.2957985
937.9895525
937.6882782
937.3916368
937.0998383
936.8123521
)
;
    }
}


// ************************************************************************* //
