/*--------------------------------*- C++ -*----------------------------------*\
  =========                 |
  \\      /  F ield         | OpenFOAM: The Open Source CFD Toolbox
   \\    /   O peration     | Website:  https://openfoam.org
    \\  /    A nd           | Version:  7
     \\/     M anipulation  |
\*---------------------------------------------------------------------------*/
FoamFile
{
    version     2.0;
    format      ascii;
    class       volScalarField;
    location    "0.0003";
    object      T;
}
// * * * * * * * * * * * * * * * * * * * * * * * * * * * * * * * * * * * * * //

dimensions      [0 0 0 1 0 0 0];

internalField   nonuniform List<scalar> 
1167
(
434.2475795
434.2861141
434.4129283
434.4521013
434.5360128
434.6599273
434.8211211
435.0171939
435.2457615
435.5045903
435.791828
436.1055251
436.4434086
436.8040272
437.1857081
437.5864033
438.0050677
438.4398597
438.8895787
439.3528597
439.8283941
440.3151475
440.8118071
441.3175534
441.8311522
442.3518334
442.8785419
443.4105002
443.9468434
444.4866639
445.0293135
445.5737194
446.1194702
446.6652589
447.2107975
447.7548056
448.2968685
448.835844
449.3710891
449.9016691
450.4268375
450.9458323
451.457832
451.9622793
452.4584443
452.9459922
453.4244675
453.8937147
454.3536313
454.8042464
455.2459963
455.6789951
434.5771366
434.617054
434.7025577
434.8288296
434.9931055
435.192893
435.4257108
435.6896258
435.9825849
436.302417
436.6472074
437.015426
437.4050507
437.8146364
438.2427414
438.6875878
439.1482892
439.6229729
440.1110625
440.6108286
441.1217867
441.642344
442.1721114
442.7095887
443.2544518
443.8054311
444.361992
444.9231475
445.488097
446.0561629
446.6261808
447.1976812
447.7693028
448.3404971
448.910019
449.4768621
450.0400482
450.598213
451.1505713
451.695438
452.2321878
452.7592734
453.2760639
453.7813526
454.2746621
454.75517
455.2229291
455.6775512
456.1196983
456.5494305
434.7403785
434.7811572
434.8685042
434.9975083
435.1653398
435.36929
435.6072806
435.8771409
436.176772
436.5038339
436.8568619
437.23399
437.6332546
438.0535043
438.4928064
438.9500916
439.4238504
439.912971
440.4162452
440.9326639
441.4611668
442.0009347
442.5508671
443.110472
443.6784945
444.2546411
444.8377333
445.4272594
446.022403
446.6221492
447.2259606
447.8325356
448.4411646
449.0507084
449.6597181
450.2672695
450.8716187
451.4713988
452.0650052
452.6504146
453.2262384
453.7902801
454.3410552
454.8766896
455.3958403
455.8972652
456.3801445
456.8440463
457.2891523
457.7158705
434.902824
434.9445919
435.0340572
435.1661815
435.337913
435.5469234
435.790898
436.0676548
436.3748156
436.7105967
437.0732815
437.4607267
437.8716114
438.3043245
438.7572597
439.2293874
439.7190804
440.2256542
440.747601
441.2844046
441.8348275
442.3982755
442.9739233
443.5609838
444.1590722
444.7670325
445.3846827
446.011196
446.6457523
447.2878806
447.9365109
448.5908164
449.2498985
449.9122642
450.5767626
451.2419298
451.9056919
452.5661935
453.2212916
453.868191
454.504352
455.1269434
455.7326121
456.318755
456.8822282
457.4205711
457.9317131
458.4142601
458.8677489
459.292701
435.0646369
435.107533
435.1993459
435.3348919
435.511331
435.7261406
435.9769882
436.2615301
436.5775836
436.9234692
437.297187
437.6969224
438.121435
438.5687164
439.0379437
439.527466
440.0365293
440.5637527
441.1086582
441.6699352
442.2473586
442.8398605
443.4471583
444.0687266
444.7038073
445.3522992
446.0135768
446.6870873
447.3725603
448.0693325
448.7765635
449.4936912
450.2197552
450.9533812
451.6932757
452.4377866
453.1848348
453.9317402
454.6757189
455.4134239
456.1409396
456.853545
457.5466358
458.2150154
458.8530289
459.4557243
460.0183872
460.5371219
461.0099509
461.4362851
435.2258657
435.2699777
435.3644673
435.5040817
435.6858702
435.907281
436.1659465
436.4593164
436.785702
437.1432122
437.5295833
437.9436808
438.3837241
438.8483745
439.3364686
439.8467729
440.378451
440.9305829
441.5024358
442.0935731
442.7030975
443.3310481
443.9768553
444.6402463
445.3212224
446.0194469
446.7347164
447.4670702
448.2163173
448.9819745
449.7637821
450.5613495
451.373976
452.2006986
453.0401108
453.8907136
454.7503705
455.6163996
456.4854176
457.3531787
458.2144858
459.0630351
459.8914994
460.6914269
461.4533746
462.1673072
462.8228718
463.4112491
463.9253731
464.3618577
435.3866438
435.4321933
435.5297659
435.6739679
435.8617961
436.0906726
436.3579539
436.6616304
436.9997838
437.3702742
437.7714803
438.2020183
438.6600384
439.1448447
439.6547372
440.1894065
440.7474871
441.3288405
441.9326883
442.558713
443.2068999
443.8767771
444.5686065
445.2825186
446.0185037
446.7767853
447.5577755
448.3617485
449.1889408
450.039394
450.9134219
451.8110502
452.732098
453.6761879
454.6425849
455.6301359
456.6371992
457.6613547
458.6993031
459.746632
460.7974239
461.8439581
462.8764027
463.8823135
464.846532
465.7510166
466.5754345
467.2986617
467.901124
468.3692546
435.5472271
435.5943858
435.695411
435.8447549
436.039361
436.2764515
436.5536449
436.8689543
437.2203271
437.6056614
438.0237563
438.4727635
438.9516767
439.4592229
439.9946659
440.557052
441.1462082
441.7612197
442.402358
443.069446
443.7624013
444.4817609
445.2278802
446.0010734
446.8020558
447.6316206
448.4905469
449.3796369
450.2997318
451.251751
452.236503
453.254752
454.3072463
455.3944217
456.51665
457.6738587
458.8655229
460.0905294
461.3465371
462.6303675
463.9370887
465.2592653
466.5861261
467.9028816
469.1887045
470.4153716
471.5463901
472.536293
473.333959
473.8912427
435.7077373
435.7566889
435.8615589
436.016633
436.2187049
436.4650056
436.7533892
437.0817472
437.4477817
437.8500763
438.2870639
438.7572041
439.2597017
439.7933117
440.3576504
440.9520751
441.5763063
442.2304807
442.9143819
443.628564
444.3735946
445.1501162
445.9587237
446.8006757
447.6771054
448.5892863
449.5385763
450.5264698
451.5545913
452.6245743
453.7381658
454.8971471
456.1033376
457.3583501
458.6640283
460.0221553
461.433848
462.9003854
464.4223244
465.9996096
467.6305584
469.3119853
471.0372814
472.7948781
474.5654232
476.3169213
477.9974243
479.5260769
480.7831721
481.6087753
435.8682796
435.9192224
436.0283517
436.189721
436.3999858
436.656695
436.9575334
437.3002388
437.6828888
438.1041748
438.5621951
439.0562933
439.5851115
440.1484548
440.7452903
441.3759745
442.0403372
442.7384967
443.4712391
444.2392592
445.0433261
445.8846428
446.7646527
447.6848805
448.6470498
449.6530111
450.7048386
451.8047742
452.9551677
454.1586107
455.4174845
456.7350194
458.1142691
459.5581234
461.0704422
462.6544314
464.3144204
466.0544801
467.8789624
469.7927561
471.8010258
473.9089269
476.1214609
478.4420383
480.871162
483.4002375
486.0005138
488.5966936
491.0081828
492.8147089
436.0230188
436.0753544
436.1874829
436.3532673
436.5696424
436.8340064
437.1440948
437.4974571
437.8927951
438.3284285
438.8030058
439.3157384
439.8657008
440.4525703
441.0762312
441.7364551
442.4338987
443.1691129
443.9426573
444.7558516
445.6100023
446.5066397
447.4474875
448.4345281
449.4698918
450.5559399
451.6952754
452.8906226
454.1450194
455.4612428
456.8431523
458.2942757
459.8184868
461.420194
463.1040779
464.875229
466.7397563
468.7041541
470.7762013
472.9650921
475.2819173
477.7406244
480.3594027
483.1625787
486.184478
489.4763557
493.1184492
497.2423068
502.0746126
508.0184075
436.1735106
436.2266745
436.3407044
436.5095423
436.7300295
436.9996063
437.3158498
437.6768333
438.0811631
438.5270029
439.0136688
439.5399896
440.1057865
440.7103057
441.354037
442.0370371
442.7597293
443.5231741
444.328398
445.1766663
446.069413
447.0085043
447.9959661
449.0339864
450.1248993
451.2712326
452.4757658
453.741538
455.0717304
456.4694715
457.9386323
459.4829348
461.1067145
462.8140656
464.6102894
466.5008086
468.4914894
470.5891944
472.8018626
475.1387244
477.610509
480.2308294
483.0158695
485.986639
489.1702479
492.6019261
496.329089
500.4150463
504.9462637
510.0442692
436.326193
436.3803555
436.4965712
436.6687241
436.8936703
437.1688691
437.4918065
437.8610372
438.2749003
438.7319141
439.2314648
439.7724686
440.3549088
440.9785103
441.6434284
442.3503215
443.0998222
443.8927883
444.7306819
445.6149671
446.5473621
447.5297731
448.5643615
449.6534069
450.7994457
452.0051693
453.2732589
454.6067146
456.0088736
457.4828504
459.0323742
460.6609761
462.3727373
464.1718609
466.0628238
468.0504878
470.140141
472.3375822
474.6493532
477.082951
479.646234
482.3489634
485.2018863
488.2176901
491.4111506
494.7994039
498.4022603
502.242408
506.3456463
510.7432808
436.4813795
436.5366667
436.6553263
436.8311745
437.0610807
437.342314
437.6728938
438.0512359
438.4755126
438.9448962
439.4583639
440.0155636
440.6160116
441.2601409
441.9479731
442.6802566
443.4580208
444.2823957
445.1547406
446.0765856
447.0498942
448.076719
449.1592523
450.299663
451.5006479
452.764799
454.0949607
455.4935997
456.9641288
458.5093416
460.1327609
461.837199
463.6264108
465.503993
467.4735285
469.5387592
471.7038497
473.9729901
476.3505741
478.8412445
481.4500485
484.1821042
487.0426531
490.0373517
493.171662
496.4506798
499.8794331
503.4617176
507.2007291
511.0991934
436.6391936
436.6957285
436.8170919
436.9970202
437.2322818
437.5202854
437.8592556
438.2474427
438.6832376
439.1660658
439.6946666
440.2692071
440.8892068
441.5550861
442.2674209
443.0267807
443.834268
444.6912685
445.5992588
446.5599489
447.5752094
448.6471226
449.7778349
450.9697087
452.2250756
453.5462344
454.9360188
456.396831
457.9313723
459.5422618
461.2323317
463.0039431
464.8599784
466.8031725
468.8359813
470.9610686
473.1809315
475.4978041
477.9142898
480.4322964
483.0537918
485.780081
488.6125148
491.5515181
494.5966027
497.7465065
500.9987267
504.3493104
507.7934385
511.3260995
436.7997517
436.8576533
436.9819749
437.1663392
437.4073513
437.7028621
438.0509537
438.4496852
438.8980829
439.3951344
439.9402911
440.5332166
441.1742282
441.8632269
442.6011706
443.3889566
444.2276946
445.1186604
446.0634155
447.0637704
448.1216276
449.2388805
450.4175891
451.6600459
452.9684216
454.3448249
455.7914165
457.3106152
458.9043494
460.5748896
462.3242146
464.15425
466.0667861
468.0634608
470.1457138
472.314772
474.5716654
476.9172716
479.3517311
481.8750316
484.486509
487.1851782
489.9688752
492.8350405
495.779932
498.798892
501.8861626
505.0350948
508.2384889
511.4895526
436.963164
437.0225474
437.1500742
437.3390302
437.5864857
437.8901004
438.2478858
438.6580966
439.1200083
439.63228
440.1950203
440.8075395
441.4704123
442.1840583
442.9488801
443.7661246
444.6369835
445.5628179
446.5451881
447.5857742
448.686412
449.848937
451.0753335
452.3672959
453.7268675
455.1560567
456.6562622
458.2296733
459.8775533
461.6015109
463.4028404
465.2827048
467.2419228
469.2809913
471.4003742
473.6000449
475.8797181
478.2385444
480.6750957
483.1878952
485.7741091
488.4310858
491.1549867
493.9409155
496.7836953
499.6771321
502.6143048
505.5878666
508.5905532
511.6159004
437.1295349
437.1904558
437.3212488
437.5153806
437.7697452
438.0820366
438.4500477
438.8726426
439.3486719
439.8773605
440.4584029
441.0918665
441.7776765
442.5166834
443.3096383
444.1575324
445.06142
446.022842
447.0432984
448.124416
449.2677185
450.4749
451.7477644
453.0879171
454.4966365
455.9756381
457.5260835
459.1493773
460.8461588
462.6174142
464.4637226
466.3854046
468.3822603
470.4539549
472.5998529
474.8188088
477.1094228
479.4693343
481.896346
484.3871877
486.9383082
489.545364
492.2036888
494.9072852
497.6503376
500.4261802
503.227754
506.0478349
508.8798036
511.7180924
437.2987609
437.3613506
437.4958116
437.695458
437.9571755
438.2785121
438.6575534
439.0932587
439.5841659
440.1301863
440.7304516
441.3855126
442.0955249
442.8608415
443.6825732
444.5616956
445.4993602
446.4968814
447.5556479
448.677148
449.8628079
451.1141297
452.4321739
453.8184696
455.2741057
456.7999116
458.3968628
460.0655652
461.8061006
463.6187745
465.5034421
467.459481
469.4859183
471.5816365
473.7449471
475.973876
478.265794
480.6176896
483.0263316
485.4874595
487.9969223
490.5495203
493.1399961
495.762017
498.4096972
501.0763035
503.7550014
506.4395338
509.1240166
511.8034205
437.4711066
437.5354932
437.6738382
437.879319
438.1488079
438.4796001
438.8703591
439.3196279
439.826372
440.3901982
441.0108409
441.6882598
442.4230403
443.2157419
444.0670587
444.9780266
445.9498327
446.9836693
448.0808071
449.2423955
450.4695686
451.7636451
453.1256153
454.5560006
456.0558631
457.6253595
459.2650562
460.9747131
462.753998
464.6024891
466.5192898
468.5029558
470.5518763
472.6640839
474.8371172
477.0682687
479.354028
481.6908894
484.0747746
486.50093
488.9646839
491.4605975
493.983019
496.5258695
499.0831892
501.6484649
504.2159198
506.7794645
509.3343154
511.8763637
437.6466871
437.7129646
437.8553954
438.0670101
438.3443946
438.6853726
439.088399
439.5517694
440.0750995
440.6574135
441.2990024
441.999697
442.759879
443.5803196
444.4617596
445.4050771
446.4112787
447.4814028
448.6165361
449.8176518
451.0857262
452.4212553
453.8250694
455.2975496
456.8387791
458.4488217
460.1274838
461.8737599
463.6870269
465.5661041
467.509295
469.5145592
471.5796987
473.7019676
475.8783715
478.1054456
480.3791852
482.6955951
485.0501827
487.4379001
489.8537416
492.2923156
494.7476935
497.2144679
499.6864428
502.1582333
504.6238926
507.0788967
509.5185149
511.9398557
437.8255831
437.8938385
438.0405423
438.2584188
438.5441954
438.8957929
439.3113756
439.7896103
440.3298835
440.9315506
441.5945244
442.3190727
443.105447
443.9541188
444.8659623
445.8417668
446.8823831
447.9886829
449.1614799
450.4011937
451.7087139
453.0844163
454.5281849
456.0402823
457.620144
459.2674887
460.9812292
462.7601333
464.602872
466.5076275
468.4720368
470.4935798
472.5694244
474.6962786
476.8706787
479.0886427
481.3458703
483.6378692
485.9599683
488.3070977
490.6740052
493.0554748
495.4457352
497.8396057
500.2316357
502.6163551
504.9891869
507.3455855
509.6819763
511.9959139
438.0078692
438.078182
438.2292212
438.453599
438.7482035
439.11081
439.5393098
440.0329811
440.5906125
441.2121885
441.8971425
442.6458379
443.4586535
444.3360502
445.2785906
446.2869386
447.3617514
448.5036934
449.7132764
450.9909405
452.3367223
453.7506075
455.2325071
456.7816214
458.3974092
460.0787692
461.824012
463.6316379
465.499652
467.4255647
469.4065494
471.4396625
473.5214749
475.6483531
477.8163419
480.0211903
482.2583424
484.5230315
486.8105688
489.1158975
491.433706
493.7589347
496.0864485
498.410929
500.7275691
503.0317467
505.3189599
507.5855152
509.828555
512.0459765
480.9060445
483.1204946
485.3558574
487.6074902
489.8704314
492.1397639
494.410143
496.6770616
498.935769
501.1817415
503.4106267
505.6188405
507.8031418
509.96112
512.0911004
)
;

boundaryField
{
    front_top
    {
        type            wedge;
    }
    front_middle
    {
        type            wedge;
    }
    front_bottom
    {
        type            wedge;
    }
    back_top
    {
        type            wedge;
    }
    back_middle
    {
        type            wedge;
    }
    back_bottom
    {
        type            wedge;
    }
    axis_top
    {
        type            symmetryPlane;
    }
    axis_middle
    {
        type            symmetryPlane;
    }
    axis_bottom
    {
        type            symmetryPlane;
    }
    wall_top
    {
        type            convectiveRadiativeHeatFlux;
        mode            convectiveRadiative;
        kappaMethod     fluidThermo;
        kappa           none;
        alphaAni        Anialpha;
        h               uniform 165;
        Ta              constant 513.15;
        emissivityNozzle 0.95;
        emissivityFilament 0.95;
        dNozzle         2;
        dFilament       1.65;
        refValue        uniform 513.15;
        refGradient     nonuniform List<scalar> 10(5206.225506 5139.444173 5049.764296 4927.830964 4760.49591 4530.068304 4208.870624 3755.194021 3096.303006 2078.428625);
        valueFraction   nonuniform List<scalar> 10(0.003177837884 0.003177131219 0.003176409838 0.003175628845 0.003174791842 0.003174740117 0.003175833768 0.003179898644 0.003190226464 0.003214105916);
        value           nonuniform List<scalar> 10(455.8931228 456.7602088 457.9222464 459.4930237 461.6285463 464.543163 468.5356495 474.03732 481.726444 492.8911344);
    }
    wall_middle
    {
        type            fixedValue;
        value           uniform 513.15;
    }
    wall_bottom
    {
        type            fixedValue;
        value           nonuniform 0();
    }
    inlet
    {
        type            fixedValue;
        value           nonuniform 0();
    }
    outlet
    {
        type            zeroGradient;
    }
    procBoundary5to4
    {
        type            processor;
        value           nonuniform List<scalar> 
51
(
438.1935537
438.2658968
438.4214276
438.6526788
438.9563992
439.3301234
439.772162
440.2815158
440.8571207
441.4987498
442.2063121
442.9795977
443.8190923
444.7252136
445.6984059
446.739157
447.8479225
449.0250931
450.2707117
451.5848501
452.9674564
454.4179133
455.9355638
457.5194037
459.1683012
460.8803544
462.6537968
464.4864537
466.375807
468.3188041
470.3122548
472.3527597
474.436479
476.5595009
478.7174834
478.7174834
481.7460769
483.9357458
486.140565
488.3555802
490.576169
492.7975485
495.0149734
497.2239628
499.4200853
501.5994262
503.7582645
505.8933348
508.0018397
510.0818598
512.1320835
)
;
    }
    procBoundary5to6
    {
        type            processor;
        value           nonuniform List<scalar> 
51
(
434.0808151
434.1188608
434.3686612
434.3686612
434.4905576
434.6491173
434.8419695
435.0668907
435.3215209
435.6039199
435.912268
436.2445786
436.5988516
436.9737366
437.3673303
437.77814
438.2048775
438.6457016
439.0997975
439.5653797
440.0417389
440.5273165
441.0214123
441.5226716
442.0304316
442.5434314
443.0611537
443.5823683
444.106689
444.6328321
445.1605681
445.6885787
446.216708
446.7437364
447.2693896
447.7926491
448.3131445
448.8299881
449.3427451
449.8506851
450.3534293
450.8503697
451.3411914
451.8254139
452.3029197
452.7733254
453.2368267
453.6930988
454.1426412
454.5851221
455.0213334
)
;
    }
}


// ************************************************************************* //
