/*--------------------------------*- C++ -*----------------------------------*\
  =========                 |
  \\      /  F ield         | OpenFOAM: The Open Source CFD Toolbox
   \\    /   O peration     | Website:  https://openfoam.org
    \\  /    A nd           | Version:  7
     \\/     M anipulation  |
\*---------------------------------------------------------------------------*/
FoamFile
{
    version     2.0;
    format      ascii;
    class       volScalarField;
    location    "0.0003";
    object      thermo:alpha;
}
// * * * * * * * * * * * * * * * * * * * * * * * * * * * * * * * * * * * * * //

dimensions      [1 -1 -1 0 0 0 0];

internalField   nonuniform List<scalar> 
1167
(
0.0001211498224
0.0001211472232
0.0001211386705
0.0001211360289
0.0001211303708
0.0001211220167
0.0001211111514
0.0001210979384
0.0001210825403
0.0001210651097
0.0001210457734
0.000121024665
0.0001209991546
0.0001209714908
0.0001209418879
0.0001209073828
0.0001208713514
0.0001208367021
0.0001208023063
0.0001207649747
0.0001207241501
0.0001206808275
0.000120633549
0.0001205870247
0.0001205430598
0.0001204966135
0.0001204466169
0.0001203961598
0.0001203453254
0.0001202942003
0.0001202428468
0.0001201873707
0.0001201306599
0.0001200788445
0.0001200268076
0.000119970405
0.0001199156296
0.000119864905
0.0001198124903
0.0001197576435
0.0001197059984
0.0001196573037
0.0001196093003
0.0001195620388
0.0001195126912
0.0001194625037
0.0001194158578
0.0001193720179
0.0001193271692
0.000119280903
0.0001192355754
0.0001191911731
0.0001211275982
0.000121124907
0.0001211191429
0.0001211106318
0.0001210995615
0.0001210861015
0.0001210704211
0.0001210526526
0.0001210329364
0.0001210099742
0.000120983519
0.0001209552805
0.0001209229972
0.0001208877378
0.0001208517852
0.0001208177525
0.0001207825294
0.0001207417821
0.000120699896
0.0001206526767
0.000120604058
0.0001205592184
0.0001205136818
0.0001204626503
0.0001204109573
0.0001203587246
0.0001203060042
0.0001202528907
0.000120196272
0.0001201372361
0.0001200825325
0.000120028168
0.0001199689025
0.0001199115221
0.0001198579272
0.0001198015531
0.0001197433458
0.0001196899152
0.0001196381039
0.0001195870348
0.0001195359934
0.0001194817202
0.0001194297287
0.0001193825128
0.0001193352802
0.0001192859404
0.0001192379416
0.0001191913212
0.0001191460085
0.0001191019952
0.0001211165935
0.0001211138449
0.000121107958
0.0001210992648
0.0001210879576
0.0001210742206
0.0001210581959
0.0001210400319
0.000121019618
0.0001209945183
0.0001209674389
0.0001209377292
0.0001209033496
0.0001208671841
0.0001208326515
0.0001207976798
0.0001207588784
0.000120716892
0.000120671201
0.0001206220493
0.0001205747279
0.0001205285332
0.0001204777163
0.0001204246133
0.0001203707545
0.0001203161698
0.0001202609724
0.0001202025973
0.0001201407433
0.000120082913
0.0001200252349
0.0001199623495
0.0001199020457
0.0001198446943
0.0001197826492
0.0001197209771
0.0001196642646
0.0001196080287
0.0001195524185
0.000119492926
0.0001194343863
0.0001193816789
0.0001193284608
0.0001192734677
0.0001192202065
0.0001191688007
0.0001191193304
0.0001190718359
0.0001190249934
0.0001189773708
0.0001211056451
0.0001211028305
0.0001210968022
0.0001210879009
0.0001210763337
0.0001210622594
0.000121045836
0.0001210272128
0.0001210044181
0.0001209786567
0.000120950845
0.0001209182031
0.0001208828347
0.0001208470725
0.0001208124242
0.0001207755794
0.0001207335322
0.0001206893502
0.0001206396591
0.0001205898634
0.0001205427453
0.0001204922036
0.000120437567
0.0001203818931
0.000120325221
0.0001202676628
0.0001202070243
0.0001201419075
0.0001200806854
0.000120018813
0.0001199515755
0.0001198879605
0.0001198250237
0.0001197565487
0.000119691928
0.0001196295383
0.0001195673387
0.0001195015967
0.0001194348488
0.0001193744017
0.0001193116909
0.0001192477886
0.0001191856768
0.0001191256178
0.0001190679282
0.0001190103237
0.0001189532932
0.0001188994907
0.0001188489613
0.0001188016407
0.0001210947419
0.0001210918519
0.0001210856668
0.0001210765372
0.0001210646559
0.0001210501947
0.000121033313
0.0001210131123
0.0001209888601
0.0001209623312
0.0001209322861
0.0001208978691
0.0001208613403
0.0001208268445
0.0001207909638
0.0001207499816
0.0001207062903
0.0001206571579
0.0001206053068
0.0001205568568
0.000120506535
0.0001204502873
0.0001203926841
0.0001203337787
0.0001202736463
0.0001202103917
0.0001201416602
0.0001200767845
0.0001200100315
0.0001199378147
0.0001198704822
0.0001197998131
0.0001197254379
0.0001196565957
0.0001195872374
0.0001195148185
0.000119438257
0.0001193684666
0.0001192940963
0.0001192184032
0.0001191438324
0.0001190708638
0.0001189962543
0.0001189217014
0.0001188506009
0.0001187834947
0.000118720897
0.0001186632301
0.000118610703
0.000118560701
0.0001210838805
0.0001210809092
0.0001210745454
0.000121065144
0.0001210529054
0.0001210380036
0.000121020449
0.000120997934
0.0001209728962
0.0001209454841
0.0001209122746
0.0001208766331
0.0001208409971
0.0001208054568
0.0001207663824
0.0001207225728
0.0001206747996
0.0001206222473
0.0001205711948
0.0001205206085
0.0001204632664
0.0001204036935
0.000120342482
0.0001202796621
0.0001202136233
0.0001201410504
0.0001200722899
0.0001200002319
0.0001199232138
0.0001198511589
0.0001197718931
0.0001196933744
0.0001196171599
0.0001195392371
0.0001194528193
0.0001193722982
0.000119286433
0.0001191975904
0.0001191085498
0.0001190178461
0.0001189217605
0.0001188272117
0.0001187350093
0.0001186460844
0.0001185586449
0.0001184727951
0.0001183940395
0.0001183209837
0.0001182545357
0.0001181981596
0.0001210730519
0.0001210699846
0.0001210634146
0.0001210537066
0.0001210410645
0.0001210256642
0.0001210057121
0.0001209824126
0.0001209564798
0.0001209259919
0.0001208914519
0.0001208549018
0.0001208198595
0.0001207827927
0.0001207390553
0.0001206928025
0.00012063967
0.0001205860582
0.0001205343719
0.0001204769715
0.0001204154671
0.000120351964
0.0001202864432
0.0001202176483
0.0001201411484
0.0001200683203
0.000119990828
0.0001199095215
0.0001198313287
0.0001197434134
0.0001196603436
0.0001195762038
0.0001194845175
0.000119392337
0.0001192974979
0.0001191961821
0.0001190930092
0.0001189834533
0.0001188677264
0.0001187511243
0.0001186343086
0.0001185116669
0.0001183876118
0.0001182600991
0.0001181355997
0.0001180189654
0.000117912784
0.0001178183553
0.0001177353235
0.0001176708535
0.000121062239
0.000121059064
0.0001210522632
0.0001210422114
0.0001210291164
0.0001210119671
0.0001209906966
0.0001209665116
0.000120938906
0.0001209057249
0.0001208697435
0.0001208341848
0.0001207975586
0.000120755841
0.0001207098821
0.0001206577958
0.0001206017352
0.0001205490442
0.0001204918159
0.0001204285049
0.0001203628024
0.0001202946645
0.0001202233307
0.0001201429592
0.0001200659358
0.000119983173
0.0001198973975
0.0001198116063
0.0001197179296
0.0001196286176
0.000119535549
0.0001194317208
0.0001193319334
0.0001192203519
0.0001191053517
0.0001189820581
0.0001188492092
0.0001187128745
0.0001185714994
0.0001184171583
0.000118253022
0.000118082359
0.0001179114078
0.0001177350814
0.0001175581017
0.0001173871
0.0001172214825
0.0001170767424
0.0001169585539
0.0001168720958
0.0001210514334
0.0001210481385
0.0001210410805
0.0001210306455
0.0001210163993
0.0001209974975
0.0001209753745
0.0001209501959
0.0001209193177
0.0001208846879
0.0001208483934
0.0001208124284
0.0001207729756
0.000120727161
0.0001206767803
0.0001206202025
0.000120564871
0.0001205081379
0.0001204432162
0.0001203754871
0.0001203049056
0.0001202314189
0.000120147359
0.000120066066
0.0001199784583
0.0001198881045
0.0001197951725
0.0001196966477
0.0001196002323
0.0001194955862
0.000119386547
0.0001192713682
0.0001191476847
0.0001190172688
0.0001188716566
0.0001187204779
0.0001185609942
0.0001183847322
0.0001181903525
0.0001179869348
0.0001177726044
0.0001175411501
0.0001172960001
0.0001170389658
0.0001167675916
0.0001164950088
0.0001162278922
0.0001159705481
0.0001157599133
0.0001156180086
0.0001210406282
0.0001210372
0.0001210298571
0.0001210186241
0.0001210024866
0.0001209827912
0.0001209597193
0.0001209320233
0.0001208990771
0.0001208628251
0.0001208273434
0.0001207895611
0.0001207450325
0.0001206966884
0.000120639879
0.0001205820221
0.0001205251624
0.0001204599067
0.000120390401
0.0001203176266
0.0001202415212
0.0001201550562
0.0001200694651
0.0001199776524
0.0001198826686
0.0001197833425
0.0001196799105
0.0001195767917
0.0001194615596
0.0001193472017
0.0001192179868
0.0001190829954
0.0001189329345
0.0001187720988
0.0001186039855
0.000118414268
0.0001182042849
0.0001179798664
0.0001177383766
0.0001174750699
0.0001171842315
0.0001168693534
0.0001165267641
0.0001161539729
0.0001157447819
0.0001153083492
0.0001148397325
0.0001143511323
0.000113880603
0.0001135253501
0.0001210302159
0.0001210266948
0.0001210187959
0.0001210060718
0.0001209894693
0.0001209691916
0.0001209454165
0.0001209150405
0.0001208810117
0.0001208452281
0.000120808926
0.0001207681628
0.0001207209485
0.0001206677425
0.0001206083913
0.0001205511636
0.0001204888212
0.000120419051
0.000120345722
0.0001202687209
0.000120183599
0.0001200938155
0.0001200022623
0.0001199026704
0.0001198022738
0.0001196938821
0.0001195870501
0.0001194682017
0.0001193485513
0.0001192134994
0.0001190719274
0.0001189128652
0.0001187431308
0.000118562637
0.0001183602792
0.0001181318969
0.0001178916347
0.0001176247576
0.0001173342346
0.0001170141067
0.0001166566354
0.0001162674966
0.0001158328137
0.0001153512635
0.0001148063263
0.000114182527
0.000113465706
0.0001126021039
0.0001115478685
0.0001101695533
0.0001210198684
0.0001210157876
0.0001210070359
0.0001209940803
0.0001209771661
0.0001209564934
0.0001209306788
0.0001208995983
0.0001208648047
0.0001208300354
0.0001207928195
0.0001207489063
0.0001207003487
0.0001206432085
0.0001205839006
0.0001205254447
0.0001204578916
0.0001203854774
0.0001203091852
0.0001202286573
0.0001201358597
0.0001200464593
0.0001199454154
0.000119846267
0.0001197345802
0.0001196267912
0.0001195109076
0.000119386232
0.0001192534533
0.0001191101826
0.0001189525215
0.0001187804663
0.0001185999577
0.0001183950969
0.0001181660877
0.0001179223905
0.0001176540265
0.0001173616298
0.0001170379456
0.0001166788015
0.0001162875687
0.0001158549404
0.0001153765296
0.0001148422285
0.0001142429372
0.0001135671481
0.0001127970859
0.0001119150911
0.0001108890896
0.000109672464
0.0001210081495
0.000121003993
0.0001209950755
0.0001209818685
0.0001209646163
0.0001209433384
0.0001209155271
0.0001208837446
0.0001208493242
0.0001208143625
0.0001207754009
0.0001207289498
0.0001206770413
0.0001206176875
0.0001205591255
0.0001204967571
0.0001204256235
0.0001203504469
0.0001202711029
0.000120183083
0.0001200899717
0.000119993731
0.0001198904502
0.0001197833016
0.0001196710348
0.0001195580219
0.0001194299908
0.0001193011806
0.0001191573636
0.0001190033728
0.0001188306261
0.0001186494677
0.0001184481082
0.0001182226952
0.0001179787916
0.0001177147489
0.0001174273506
0.0001171057812
0.0001167545885
0.0001163696075
0.0001159509564
0.0001154909225
0.000114983481
0.0001144225517
0.0001138012832
0.0001131210413
0.0001123547915
0.0001115099477
0.0001105668899
0.0001095008533
0.0001209962411
0.0001209919992
0.0001209828962
0.0001209694088
0.0001209517803
0.0001209283998
0.0001208999374
0.0001208673793
0.0001208339745
0.000120798077
0.0001207559148
0.0001207080891
0.0001206521834
0.0001205919413
0.0001205330642
0.0001204654343
0.0001203916543
0.0001203135415
0.0001202309379
0.0001201351146
0.0001200425552
0.0001199370495
0.0001198343996
0.000119717936
0.0001196052875
0.0001194811515
0.0001193532251
0.0001192101814
0.0001190595469
0.0001188888937
0.0001187081786
0.0001185124797
0.0001182931693
0.0001180508047
0.0001177942479
0.0001175099753
0.000117198446
0.000116859419
0.0001164894969
0.0001160851171
0.000115645278
0.0001151672662
0.0001146442124
0.0001140718807
0.0001134550617
0.0001127711109
0.0001120337869
0.0001112296877
0.0001103636665
0.0001094135374
0.0001209841338
0.0001209797971
0.0001209704888
0.0001209566917
0.0001209378763
0.0001209130751
0.0001208838979
0.0001208514254
0.0001208180852
0.0001207810186
0.0001207356278
0.0001206852024
0.0001206261841
0.0001205666875
0.0001205046296
0.0001204325524
0.000120355992
0.000120274833
0.0001201847158
0.0001200887837
0.0001199890207
0.0001198826617
0.0001197704407
0.0001196550644
0.0001195367261
0.0001194044788
0.000119267379
0.0001191176215
0.0001189533312
0.000118773864
0.0001185852426
0.0001183722994
0.0001181338646
0.0001178834739
0.0001176066187
0.0001173071598
0.0001169823065
0.0001166232249
0.0001162407119
0.0001158202709
0.000115370028
0.0001148793934
0.0001143481517
0.0001137736637
0.0001131626165
0.0001124945559
0.0001117858418
0.0001110259654
0.0001102229385
0.0001093578925
0.0001209718187
0.0001209673782
0.0001209578453
0.0001209435563
0.0001209227991
0.0001208973579
0.0001208674036
0.0001208359504
0.0001208016561
0.0001207613443
0.0001207145477
0.0001206600648
0.0001205992993
0.0001205403152
0.0001204729411
0.0001203982025
0.0001203187218
0.0001202343953
0.0001201364827
0.0001200412464
0.0001199323974
0.0001198261632
0.0001197068665
0.0001195903509
0.0001194601957
0.0001193280737
0.0001191796492
0.0001190225974
0.0001188448845
0.0001186590332
0.0001184539386
0.0001182249698
0.0001179782812
0.000117712962
0.0001174265853
0.0001171091151
0.0001167666244
0.0001163967184
0.000115998981
0.000115572279
0.0001151123793
0.0001146173071
0.0001140853819
0.0001135213569
0.0001129144542
0.0001122703159
0.0001115895263
0.0001108687309
0.0001101165446
0.000109317819
0.0001209592876
0.0001209547345
0.0001209449574
0.0001209286825
0.0001209073757
0.0001208812436
0.0001208513915
0.000120820008
0.000120784691
0.0001207409831
0.0001206922678
0.0001206339551
0.0001205739364
0.000120512547
0.000120439943
0.0001203624495
0.0001202799709
0.0001201885039
0.0001200901769
0.0001199879255
0.0001198789646
0.0001197630927
0.0001196451588
0.0001195220777
0.0001193876025
0.0001192448018
0.0001190910576
0.0001189200673
0.0001187365605
0.0001185408246
0.0001183220709
0.0001180793363
0.0001178261787
0.0001175454116
0.0001172428492
0.0001169172645
0.0001165641445
0.0001161890865
0.0001157785015
0.0001153466914
0.000114880468
0.0001143823348
0.0001138517012
0.0001132971144
0.0001126999921
0.0001120786409
0.0001114244174
0.0001107420997
0.0001100298791
0.0001092868487
0.0001209465326
0.000120941479
0.0001209302139
0.0001209134974
0.0001208916012
0.0001208647295
0.0001208359227
0.0001208036013
0.0001207653344
0.0001207199479
0.0001206671872
0.000120606904
0.0001205476359
0.0001204809615
0.0001204057238
0.0001203253669
0.0001202398096
0.0001201406977
0.0001200431773
0.0001199321086
0.0001198231806
0.0001197014875
0.0001195821325
0.0001194479007
0.0001193124832
0.0001191607692
0.0001189985479
0.0001188175974
0.0001186288949
0.0001184187141
0.0001181850077
0.0001179372482
0.000117669063
0.0001173814458
0.0001170674557
0.0001167283397
0.0001163652764
0.0001159798011
0.0001155686189
0.0001151302853
0.0001146639135
0.0001141689118
0.0001136454086
0.0001130989298
0.0001125150634
0.0001119126247
0.0001112834285
0.0001106368007
0.000109958707
0.0001092618032
0.0001209321506
0.0001209267604
0.0001209151822
0.0001208979952
0.000120875472
0.0001208490478
0.0001208200495
0.0001207867356
0.0001207451136
0.0001206982555
0.0001206412912
0.0001205812054
0.0001205204415
0.0001204482964
0.000120370368
0.0001202870974
0.000120195101
0.0001200947367
0.0001199910485
0.0001198798363
0.0001197616592
0.0001196415209
0.0001195153964
0.0001193790458
0.0001192326921
0.0001190763531
0.0001189014298
0.0001187156505
0.0001185162192
0.0001182941563
0.0001180508757
0.0001177961843
0.0001175172385
0.0001172163254
0.0001168947859
0.0001165495834
0.0001161843839
0.0001157883759
0.0001153747359
0.0001149320613
0.0001144641703
0.0001139709391
0.0001134614758
0.0001129182845
0.0001123532071
0.0001117686711
0.0001111623453
0.0001105445646
0.0001098986383
0.0001092408935
0.0001209173093
0.0001209117657
0.0001208998561
0.0001208821714
0.0001208589856
0.0001208336618
0.0001208037759
0.0001207678287
0.0001207243236
0.0001206736811
0.0001206146118
0.0001205552884
0.0001204898522
0.0001204146285
0.0001203339367
0.0001202476986
0.0001201482828
0.0001200488019
0.000119936626
0.0001198257997
0.0001197019878
0.0001195806447
0.0001194440223
0.0001193063876
0.0001191525488
0.0001189874696
0.0001188047182
0.0001186146164
0.0001184023101
0.0001181670945
0.0001179200113
0.0001176524482
0.0001173670975
0.0001170580718
0.0001167255041
0.0001163720098
0.0001159986064
0.0001156039037
0.0001151866241
0.0001147465245
0.0001142818238
0.0001137915532
0.0001132884743
0.0001127550505
0.0001122097937
0.0001116420857
0.0001110565658
0.000110463757
0.0001098469275
0.0001092230206
0.0001209021933
0.0001208964883
0.0001208842301
0.0001208660222
0.0001208440064
0.0001208179219
0.000120787107
0.000120747895
0.0001207029813
0.0001206482426
0.0001205886133
0.000120528639
0.0001204578774
0.0001203800602
0.0001202965581
0.0001202049037
0.0001201028177
0.0001199987459
0.0001198855401
0.0001197663257
0.0001196441843
0.0001195165208
0.0001193784293
0.0001192302874
0.000119072375
0.0001188956386
0.0001187087654
0.0001185080835
0.0001182853348
0.0001180427981
0.0001177893177
0.0001175133017
0.000117216609
0.0001169014528
0.0001165643527
0.0001162112371
0.0001158294096
0.0001154314524
0.0001150108047
0.0001145696124
0.0001141080851
0.0001136279882
0.000113131641
0.0001126080442
0.0001120765763
0.0001115293126
0.0001109629925
0.0001103926075
0.0001098016463
0.0001092074649
0.0001208867957
0.000120880922
0.0001208682993
0.0001208505855
0.0001208287203
0.0001208018312
0.0001207685375
0.0001207274786
0.0001206794243
0.0001206221553
0.0001205633115
0.0001204997245
0.0001204250899
0.0001203446361
0.0001202583014
0.0001201595115
0.000120058357
0.00011994617
0.0001198341692
0.0001197084054
0.000119585791
0.0001194482609
0.0001193092437
0.0001191541453
0.0001189880516
0.0001188044474
0.0001186138927
0.0001184015734
0.0001181670451
0.0001179215126
0.0001176567042
0.0001173756394
0.0001170719015
0.0001167473191
0.0001164043437
0.0001160424646
0.0001156631792
0.0001152654539
0.0001148470266
0.0001144057004
0.0001139464155
0.0001134780699
0.0001129859234
0.0001124747055
0.0001119557265
0.000111423946
0.0001108792519
0.0001103292626
0.0001097614726
0.0001091937316
0.0001208711103
0.0001208650611
0.0001208528199
0.000120835651
0.0001208131167
0.000120785394
0.0001207489647
0.0001207065947
0.0001206546011
0.0001205960481
0.0001205374132
0.0001204687012
0.0001203915943
0.0001203084607
0.0001202180568
0.0001201145573
0.0001200111524
0.0001198961601
0.0001197771132
0.0001196530731
0.0001195252265
0.0001193853848
0.0001192369591
0.0001190782252
0.0001189013689
0.0001187141823
0.0001185140654
0.0001182924937
0.0001180513643
0.0001178008597
0.0001175281491
0.0001172370997
0.0001169294548
0.0001165999319
0.0001162558178
0.0001158898407
0.0001155064746
0.0001151057955
0.0001146880355
0.0001142533539
0.0001137968448
0.0001133344647
0.0001128489332
0.0001123529447
0.0001118458738
0.000111328464
0.0001108036901
0.0001102722932
0.0001097254557
0.000109181468
0.0001157387838
0.000115358593
0.0001149557547
0.000114537616
0.0001141047938
0.0001136579749
0.0001132008518
0.0001127227612
0.0001122411741
0.0001117453365
0.0001112414217
0.0001107350069
0.0001102206356
0.0001096928884
0.000109170415
)
;

boundaryField
{
    front_top
    {
        type            wedge;
    }
    front_middle
    {
        type            wedge;
    }
    front_bottom
    {
        type            wedge;
    }
    back_top
    {
        type            wedge;
    }
    back_middle
    {
        type            wedge;
    }
    back_bottom
    {
        type            wedge;
    }
    axis_top
    {
        type            symmetryPlane;
    }
    axis_middle
    {
        type            symmetryPlane;
    }
    axis_bottom
    {
        type            symmetryPlane;
    }
    wall_top
    {
        type            calculated;
        value           nonuniform List<scalar> 10(0.0001191692252 0.000119080417 0.0001189543491 0.0001187793435 0.0001185375727 0.0001181747524 0.0001176479481 0.0001168494442 0.0001155977969 0.0001135103404);
    }
    wall_middle
    {
        type            calculated;
        value           uniform 0.0001089022317;
    }
    wall_bottom
    {
        type            calculated;
        value           nonuniform 0();
    }
    inlet
    {
        type            calculated;
        value           nonuniform 0();
    }
    outlet
    {
        type            calculated;
        value           nonuniform 0();
    }
    procBoundary5to4
    {
        type            processor;
        value           nonuniform List<scalar> 
51
(
0.0001208555496
0.0001208500132
0.0001208381123
0.0001208204224
0.0001207971976
0.0001207669273
0.0001207289762
0.0001206840302
0.0001206292371
0.0001205715103
0.0001205104334
0.0001204370286
0.0001203574301
0.0001202716204
0.0001201744102
0.0001200718709
0.000119960755
0.0001198471034
0.0001197206539
0.0001195973968
0.000119460295
0.0001193205673
0.0001191648758
0.0001189992933
0.0001188154903
0.0001186250966
0.0001184143442
0.0001181820732
0.0001179384839
0.0001176777994
0.0001174022126
0.000117103563
0.0001167875716
0.0001164552834
0.0001161064596
0.0001161064596
0.0001155944249
0.0001152117036
0.0001148145403
0.0001143965634
0.0001139656889
0.0001135287205
0.0001130768612
0.0001126060181
0.0001121356509
0.0001116529312
0.0001111615962
0.0001106721626
0.0001101734843
0.0001096632312
0.0001091603768
)
;
    }
    procBoundary5to6
    {
        type            processor;
        value           nonuniform List<scalar> 
51
(
0.0001211610725
0.0001211585056
0.0001211416559
0.0001211416559
0.0001211334358
0.0001211227454
0.0001211097462
0.00012109459
0.0001210774377
0.0001210584221
0.000121037668
0.0001210144134
0.0001209872285
0.0001209584769
0.0001209262454
0.0001208908787
0.000120854683
0.000120820956
0.0001207862358
0.0001207467265
0.0001207058434
0.0001206606265
0.0001206136061
0.0001205694624
0.0001205260098
0.0001204784222
0.0001204292916
0.000120379866
0.0001203301827
0.0001202803639
0.0001202303318
0.0001201754316
0.000120121189
0.0001200714388
0.0001200207307
0.000119966483
0.0001199140972
0.0001198654559
0.0001198154214
0.000119762912
0.0001197128888
0.0001196662578
0.0001196202331
0.0001195748583
0.0001195287079
0.0001194802739
0.0001194333965
0.0001193907571
0.0001193487734
0.0001193033976
0.0001192586243
)
;
    }
}


// ************************************************************************* //
