/*--------------------------------*- C++ -*----------------------------------*\
  =========                 |
  \\      /  F ield         | OpenFOAM: The Open Source CFD Toolbox
   \\    /   O peration     | Website:  https://openfoam.org
    \\  /    A nd           | Version:  7
     \\/     M anipulation  |
\*---------------------------------------------------------------------------*/
FoamFile
{
    version     2.0;
    format      ascii;
    class       volScalarField;
    location    "0.0003";
    object      thermo:mu;
}
// * * * * * * * * * * * * * * * * * * * * * * * * * * * * * * * * * * * * * //

dimensions      [1 -1 -1 0 0 0 0];

internalField   nonuniform List<scalar> 
1167
(
417277.656
415591.0277
410095.6029
408415.0047
404841.6357
399630.3474
392966.3977
385032.2718
376015.0527
366096.2474
355439.8072
344207.8583
332564.9532
320636.6083
308545.8223
296415.1518
284324.7388
272367.3671
260606.5281
249100.5286
237896.8239
227028.2374
216526.573
206406.6397
196686.3085
187369.618
178462.0094
169960.712
161861.8483
154159.8267
146843.6169
139906.5201
133332.2407
127114.6108
121234.9258
115685.1485
110447.8255
105512.7316
100864.8276
96491.88767
92380.30444
88517.01879
84889.84462
81485.2717
78291.65073
75295.51764
72485.07667
69847.67161
67371.38518
65044.61013
62854.75275
60791.92719
403103.5295
401424.622
397855.386
392650.9408
385997.0075
378078.9495
369086.7704
359189.9854
348560.2808
337367.1946
325762.1168
313873.7765
301835.9138
289752.0842
277714.9047
265814.7437
254107.2304
242663.5129
231513.692
220706.934
210257.4878
200196.6679
190526.361
181264.6729
172404.8229
163952.8238
155900.0714
148242.6431
140971.8597
134076.1208
127548.3936
121372.5197
115541.3568
110038.4613
104853.9117
99974.87836
95388.09556
91083.19613
87045.22056
83265.86602
79729.42886
76426.7978
73343.38654
70468.79984
67789.14643
65293.38508
62966.93604
60798.67242
58773.67225
56881.17215
396288.2701
394606.5516
391031.9195
385820.4673
379159.7506
371243.0957
362244.7312
352343.8857
341714.2068
330531.0046
318930.7521
307054.1748
295033.0577
282963.0742
270951.3377
259069.2752
247389.8252
235965.8166
224843.5886
214056.9255
203633.6202
193590.5101
183944.2527
174696.1823
165856.5298
157416.8614
149379.4708
141734.5601
134474.7849
127593.2438
121076.0883
114916.6146
109100.6451
103617.4671
98457.92426
93607.51146
89057.69466
84796.12568
80811.71643
77095.54147
73634.22826
70419.21305
67437.71227
64679.41872
62131.70919
59782.31165
57618.0024
55625.11476
53788.85876
52095.1589
389637.6107
387948.4281
384358.5523
379126.6799
372448.5601
364502.8054
355473.7273
345541.8579
334891.3486
323678.9991
312051.717
300159.6342
288115.8356
276031.3186
264004.817
252108.6168
240419.7643
228982.6529
217852.0112
207052.9107
196618.6882
186563.7769
176902.0116
167641.8017
158781.6305
150328.1465
142271.1869
134607.432
127330.927
120429.97
113897.8841
107723.6853
101895.901
96406.84851
91244.37773
86397.73219
81859.1141
77617.6408
73663.17752
69988.19826
66582.40909
63436.27922
60542.0737
57887.97683
55464.7332
53260.41723
51262.42357
49456.82344
47827.96062
46358.76541
383140.2972
381438.8616
377826.3401
372564.8646
365841.9864
357844.9103
348759.9225
338774.7454
328067.9598
316795.1253
305114.2931
293166.795
281066.0571
268935.984
256856.123
244917.2756
233177.3259
221699.5819
210518.6986
199679.1824
189197.224
179099.2052
169392.4062
160084.4733
151182.4546
142680.925
134579.2394
126873.0551
119552.86
112611.8131
106042.7376
99834.13014
93976.61243
88462.2375
83280.48024
78421.65489
73876.93913
69638.92704
65698.50752
62047.50569
58678.40373
55585.16461
52759.24431
50193.11917
47879.82901
45809.32416
43971.1457
42353.22647
40939.46838
39712.35542
376790.2254
375074.0292
371428.0841
366115.4376
359328.6587
351257.571
342091.7557
332028.0922
321230.7227
309865.6356
298101.3596
286061.3552
273878.0322
261659.3066
249497.4565
237475.661
225657.4319
214099.1723
202844.766
191925.198
181373.3674
171200.0671
161422.0764
152046.9954
143075.4219
134509.7591
126347.8406
118582.7125
111208.3131
104219.3925
97606.63946
91360.40044
85471.81547
79931.975
74732.72887
69864.1776
65317.77397
61085.15647
57158.48166
53530.63752
50195.09323
47146.07155
44377.95372
41885.60072
39664.08097
37708.02033
36011.73871
34565.80856
33358.40845
32372.44225
370578.3138
368839.9435
365147.6596
359768.551
352898.4332
344730.3358
335466.0979
325286.7892
314368.5097
302888.4375
290998.6187
278834.7256
266534.3727
254192.5204
241919.2654
229779.7921
217854.3723
206187.1215
194828.0676
183810.7206
173157.703
162893.9766
153028.3243
143568.5143
134520.9205
125886.0458
117660.2446
109839.7029
102419.1746
95393.27882
88752.66772
82488.86233
76593.10278
71056.0237
65868.33062
61020.66618
56503.5206
52308.00029
48425.49421
44847.85282
41567.90856
38579.45624
35877.26151
33457.59226
31317.85536
29456.85568
27874.06407
26568.23479
25535.74129
24766.33798
364491.4063
362725.7903
358976.4922
353515.4692
346542.4118
338260.2875
328865.1202
318541.8044
307475.4386
295846.1442
283798.4631
271486.37
259029.1485
246542.5084
234117.8149
221841.2932
209772.5855
197978.1195
186493.1324
175355.5487
164595.2957
154227.8382
144267.9862
134727.3739
125609.5948
116915.422
108644.0143
100792.5647
93356.31229
86328.46246
79701.71931
73467.62274
67616.40283
62138.50861
57022.98154
52259.09178
47835.79996
43741.81895
39967.02003
36500.29756
33331.48317
30451.83083
27854.21118
25532.79968
23484.94736
21711.35525
20216.0652
19007.39157
18095.93857
17490.12242
358522.0971
356724.0788
352907.0151
347348.5644
340256.2916
331836.3332
322281.4265
311786.1264
300548.4175
288733.0375
276502.0046
264006.2545
251366.2118
238703.1673
226106.7986
213663.3154
201441.5624
189494.4107
177873.9675
166612.3832
155737.1542
145270.3589
135230.5276
125624.6745
116459.3867
107737.6612
99459.86973
91623.5967
84224.0801
77255.29005
70709.25637
64576.72724
58847.17511
53509.84464
48551.73864
43959.1325
39719.24547
35817.20644
32238.59874
28968.58776
25993.4128
23299.08218
20873.39942
18706.02439
16789.38638
15120.45428
13703.09185
12550.53501
11689.34075
11162.40415
352664.0027
350828.2433
346932.6376
341263.2318
334035.5028
325449.3504
315709.3059
305020.975
293576.9816
281546.6645
269108.4372
256396.6296
243554.08
230684.2472
217899.887
205273.3428
192880.1521
180781.5328
169020.286
157635.5985
146660.1129
136115.9475
126019.0248
116381.6406
107211.5295
98513.08774
90286.92231
82530.82265
75240.43433
68408.61416
62028.07943
56086.09287
50570.338
45468.13704
40762.6546
36438.79807
32477.90662
28862.11451
25572.8656
22590.8045
19896.58473
17471.29926
15296.50299
13355.19062
11631.77365
10114.36262
8796.712128
7683.14388
6798.812142
6216.665359
347121.8429
345270.1539
341341.1295
335626.0464
328332.1537
319667.3918
309838.1588
299059.6478
287510.1879
275375.5666
262824.1787
250000.5079
237042.8156
224064.5815
211165.4938
198437.934
185948.3846
173758.7016
161923.2988
150478.8147
139457.9055
128886.0984
118782.9735
109162.1829
100033.2412
91401.16261
83266.96476
75628.92662
68481.59672
61819.1905
55628.87634
49898.6797
44614.05033
39757.87313
35311.9144
31256.70356
27570.78904
24232.82428
21220.38697
18510.76772
16081.22475
13908.99984
11971.45119
10246.33657
8711.617016
7345.198093
6124.852732
5028.241327
4033.202907
3120.341077
341827.9007
339980.0146
336055.2447
330339.5997
323043.472
314374.1277
304544.1299
293754.1817
282188.9021
270041.2925
257465.4595
244620.3691
231631.004
218626.2324
205698.0556
192939.531
180427.6225
168220.963
156372.8952
144927.2219
133920.029
123377.4285
113320.0899
103763.5325
94718.57735
86191.24942
78182.83711
70690.44586
63708.11869
57227.80865
51235.98956
45718.36643
40657.06532
36033.91829
31826.71046
28013.10394
24570.00466
21473.16657
18697.96392
16219.84382
14014.74906
12058.66316
10328.84511
8803.170885
7460.707401
6281.985715
5248.874775
4345.07136
3556.034088
2868.895241
336551.7961
334702.7616
330774.7099
325053.2988
317748.5199
309068.0215
299228.5659
288418.7028
276834.2552
264661.5883
252057.6606
239183.7265
226166.1055
213128.6264
200176.3006
187395.9198
174867.0681
162657.4472
150818.6333
139396.6493
128428.5739
117944.131
107965.6162
98509.83152
89587.21524
81203.25252
73359.72361
66052.75987
59273.69086
53012.12679
47252.36846
41977.39745
37166.48104
32797.313
28845.96496
25287.1989
22094.9868
19242.93096
16704.52566
14453.54188
12464.98708
10714.18724
9178.017346
7834.560138
6663.386767
5645.657666
4764.145133
4003.227879
3348.818113
2788.008682
331285.1515
329431.8521
325494.4494
319758.8007
312434.942
303737.7394
293869.5283
283026.6744
271412.9122
259200.8455
246563.0455
233647.7859
220597.9587
207527.4439
194550.1026
181756.4343
169224.4306
157023.0699
145210.5248
133835.6208
122935.4961
112540.7912
102675.1636
93356.84354
84594.48704
76393.03469
68751.19177
61665.26057
55122.54598
49109.94964
43608.22869
38597.92505
34054.30797
29951.75789
26263.51286
22961.74511
20017.79023
17403.31274
15090.38968
13051.84048
11261.44847
9694.45493
8327.602862
7139.101383
6108.938755
5218.823471
4452.009118
3793.457074
3229.52986
2747.912128
326026.5689
324166.2193
320213.8154
314456.0085
307106.8067
298378.3414
288469.7685
277585.9608
265928.2262
253667.5725
240987.4514
228029.0917
214941.1724
201843.4941
188844.67
176044.3305
163523.8939
151352.5505
139590.5669
128287.5405
117483.9032
107210.8679
97492.34251
88343.88729
79775.12367
71789.61751
64382.12966
57544.87621
51263.72606
45520.79005
40293.88283
35559.25185
31289.18406
27454.79757
24026.57978
20973.98475
18266.66901
15874.91036
13769.34721
11922.34482
10307.44106
8900.007464
7676.900825
6616.986948
5700.977619
4911.295397
4232.109589
3649.235367
3149.920416
2722.722845
320775.1101
318905.2794
314932.8635
309146.565
301766.4331
292993.3833
283034.5886
272103.9457
260389.8549
248080.1693
235345.9433
222346.2337
209217.8284
196097.088
183090.0692
170295.7327
157800.2846
145678.1234
133990.6558
122787.7495
112110.1112
101990.2498
92450.91631
83505.44043
75160.94975
67417.82264
60269.43447
53702.13464
47699.27952
42238.20245
37293.55748
32837.02852
28838.29933
25265.74793
22087.13923
19270.19156
16783.0572
14594.7392
12675.92477
10998.61284
9536.696075
8265.831251
7163.87756
6210.467436
5387.26877
4677.764492
4067.197969
3542.417453
3091.736594
2704.755217
315530.2416
313648.8384
309652.0814
303837.6654
296412.7141
287587.1483
277573.8106
266585.1801
254808.4987
242445.1695
229656.1262
216614.3812
203456.5848
190314.6129
177310.0635
164539.5888
152091.5306
140041.6379
128452.9509
117377.1923
106854.722
96916.43488
87582.72472
78867.17994
70772.32246
63293.49004
56421.887
50138.51331
44422.93623
39248.52087
34585.98272
30403.50777
26668.0105
23345.64495
20402.0309
17803.59703
15517.65404
13513.08522
11760.52045
10232.17943
8902.826306
7748.864621
6749.090774
5884.428356
5137.590785
4493.239608
3937.764272
3459.116918
3046.650235
2690.967291
310291.8043
308398.7737
304379.4188
298524.5714
291048.8661
282164.4911
272094.2325
261038.6556
249201.8716
236776.6341
223939.7897
210853.3415
197673.2427
184527.3509
171535.8266
158803.7321
146423.5567
134469.5926
123005.7975
112083.4335
101743.5216
92014.35979
82913.13456
74448.75799
66622.53278
59424.61701
52840.56993
46848.24869
41422.79782
36533.45297
32147.34216
28229.74748
24745.35959
21658.21337
18932.78068
16534.75292
14431.13415
12591.17968
10985.6268
9587.825782
8373.182275
7319.459139
6406.502743
5616.497375
4933.341653
4342.882131
3832.638063
3391.639979
3010.216401
2679.879272
305066.1618
303159.1991
299108.8257
293209.5682
285678.5469
276735.5501
266599.3929
255473.858
243576.3694
231089.0529
218207.6239
205089.0008
191890.2902
178753.2595
165794.963
153123.3801
140831.1815
128996.0176
117681.7861
106938.5727
96804.54857
87305.07797
78457.02085
70262.90547
62718.36553
55811.18172
49520.60398
43821.01528
38683.03431
34072.30748
29952.87266
26287.83783
23039.82512
20171.4793
17646.776
15431.06311
13491.81201
11798.54097
10322.93473
9039.411715
7924.431108
6957.059036
6118.402749
5391.85832
4762.507554
4217.369222
3745.037141
3335.456946
2979.87515
2670.664487
299848.3081
297925.4603
293841.8726
287895.303
280305.8031
271303.735
261096.9842
249906.0339
237943.2153
225404.1085
212476.7995
199336.3521
186135.7145
173017.4211
160108.6424
147517.5347
135336.4382
123643.4886
112501.5058
101960.1397
92054.86936
82806.42927
74225.72193
66314.54561
59061.07492
52449.0953
46452.70706
41042.88517
36185.63906
31843.67878
27978.59383
24551.68261
21524.03926
18857.73773
16516.53439
14465.98811
12674.26305
11111.57837
9750.830787
8567.560838
7539.517761
6646.996489
5872.433698
5200.345659
4617.029742
4110.581661
3670.472045
3287.629493
2954.050794
2662.818395
294638.1786
292698.7097
288580.4474
282584.7379
274942.199
265872.5245
255594.9514
244341.476
232314.69
219729.7022
206768.0227
193612.8733
180425.1311
167346.5155
154505.6424
142013.8468
129964.9521
118436.3911
107489.0848
97169.34488
87508.24775
78525.87259
70226.36958
62604.8816
55647.28228
49330.40328
43624.89529
38498.14915
33911.83006
29826.39714
26201.69976
22997.46492
20173.92754
17693.11759
15518.8966
13617.57454
11958.10023
10511.77359
9252.695129
8157.660978
7205.771501
6378.533129
5659.700593
5034.797299
4491.331742
4018.230456
3605.995405
3246.201131
2931.659055
2656.01223
289436.8771
287480.3943
283326.7259
277285.1846
269585.0992
260448.1793
250106.5273
238788.4248
226708.2777
214079.5241
201097.234
187940.4964
174776.7874
161755.1119
149002.6364
136631.4891
124735.529
113390.6853
102655.9299
92576.25025
83176.207
74469.50981
66458.64748
59131.47484
52469.57606
46444.43198
41023.73816
36170.10772
31842.84554
28000.36506
24601.12486
21603.79861
18968.45588
16657.30405
14634.7453
12868.00732
11327.0317
9984.453387
8815.602322
7798.51632
6913.669881
6143.751464
5473.678668
4890.067836
4381.33101
3937.407021
3549.446465
3209.845718
2911.964376
2650.020914
284245.7773
282272.2237
278086.1113
271999.0976
264239.2695
255037.068
244636.4759
233256.8683
221132.581
208468.9766
195476.2755
182335.4507
169214.652
156265.0473
143618.6681
131387.501
119664.4019
108522.8272
98018.71653
88190.26477
79061.33699
70639.88468
62920.32681
55888.50598
49518.59923
43779.1061
38633.98784
34041.99384
29960.54294
26346.67851
23157.69996
20351.79312
17889.32752
15732.91482
13847.90332
12202.51095
10767.87925
9517.97767
8429.393682
7481.44678
6655.904178
5936.617527
5309.479644
4762.236379
4284.132739
3865.847357
3499.334265
3177.567913
2894.443214
2644.684594
11609.04652
10269.92268
9102.968617
8086.035731
7199.680109
6426.769582
5752.425781
5163.432337
4648.401637
4197.43605
3801.970763
3454.521267
3148.637459
2878.709688
2639.886147
)
;

boundaryField
{
    front_top
    {
        type            wedge;
    }
    front_middle
    {
        type            wedge;
    }
    front_bottom
    {
        type            wedge;
    }
    back_top
    {
        type            wedge;
    }
    back_middle
    {
        type            wedge;
    }
    back_bottom
    {
        type            wedge;
    }
    axis_top
    {
        type            symmetryPlane;
    }
    axis_middle
    {
        type            symmetryPlane;
    }
    axis_bottom
    {
        type            symmetryPlane;
    }
    wall_top
    {
        type            calculated;
        value           nonuniform List<scalar> 10(59801.28805 55979.19087 51298.61643 45684.69629 39173.23693 31973.08395 24499.53111 17335.36192 11089.65801 6193.4067);
    }
    wall_middle
    {
        type            calculated;
        value           uniform 2530.329233;
    }
    wall_bottom
    {
        type            calculated;
        value           nonuniform 0();
    }
    inlet
    {
        type            calculated;
        value           nonuniform 0();
    }
    outlet
    {
        type            calculated;
        value           nonuniform 0();
    }
    procBoundary5to4
    {
        type            processor;
        value           nonuniform List<scalar> 
51
(
279068.145
277080.4827
272862.3308
266726.9947
258909.6408
249651.3081
239190.803
227760.4351
215596.764
202915.0781
189920.9152
176809.704
163749.4601
150892.5785
138371.8473
126299.0019
114765.1883
103841.3129
93580.83716
84017.13768
75166.7346
67033.55315
59607.20095
52867.0339
46783.27088
41321.33626
36440.41816
32097.36495
28247.85415
24847.91612
21854.14648
19224.81787
16920.7696
14905.33739
13144.98908
13144.98908
11077.57613
9824.447995
8731.838547
7779.055363
6947.742809
6221.902465
5587.572766
5032.560114
4546.30677
4119.60278
3744.502723
3414.122037
3122.507678
2864.471896
2635.5374
)
;
    }
    procBoundary5to6
    {
        type            processor;
        value           nonuniform List<scalar> 
51
(
424668.1806
422968.9339
412004.3389
412004.3389
406772.8572
400081.8808
392113.8818
383050.6853
373080.117
362370.0359
351078.2006
339360.2934
327361.6011
315194.3264
302977.7302
290805.8561
278755.933
266909.7595
255311.0276
244019.7046
233060.5943
222471.4303
212264.1669
202459.2532
193058.4479
184070.9056
175489.1732
167315.2639
159535.5226
152148.2164
145135.1644
138492.0893
132199.0081
126248.6607
120622.497
115310.2348
110294.9019
105564.9493
101104.8774
96902.32606
92942.5198
89213.21361
85700.61427
82392.92114
79276.65247
76340.96991
73572.30871
70961.20943
68494.37676
66164.07168
63957.44239
)
;
    }
}


// ************************************************************************* //
