/*--------------------------------*- C++ -*----------------------------------*\
  =========                 |
  \\      /  F ield         | OpenFOAM: The Open Source CFD Toolbox
   \\    /   O peration     | Website:  https://openfoam.org
    \\  /    A nd           | Version:  7
     \\/     M anipulation  |
\*---------------------------------------------------------------------------*/
FoamFile
{
    version     2.0;
    format      ascii;
    class       volTensorField;
    location    "0.0006";
    object      grad(U);
}
// * * * * * * * * * * * * * * * * * * * * * * * * * * * * * * * * * * * * * //

dimensions      [0 0 -1 0 0 0 0];

internalField   nonuniform List<tensor> 
1167
(
(-0.2521529054 -1.837203352e-13 0.1440489212 6.913555099e-13 -0.4132250772 0 0.01911678327 -3.312466229e-15 1.32448005)
(-0.3335877149 -2.635208193e-13 0.3337507688 3.939955794e-13 -0.3609848836 0 0.04987687152 1.232429811e-14 1.322607377)
(-0.3266985393 -4.120570401e-13 0.5539459523 3.427494017e-13 -0.3440234849 0 0.07863028702 1.812177622e-13 1.319239699)
(-0.3337605205 6.374415012e-14 0.8056496626 3.939322046e-13 -0.3403717069 0 0.1075251776 1.426072462e-14 1.31724909)
(-0.3391745113 7.038162859e-14 1.10248099 1.899046364e-13 -0.3391214289 0 0.134480933 -7.224117012e-14 1.320317437)
(-0.3520102047 -2.313895835e-13 1.462875729 2.180032749e-13 -0.3396043804 0 0.1578686545 -1.152313641e-13 1.333180297)
(-0.3774603269 -3.738987405e-13 1.907466028 2.048684297e-13 -0.3425598362 0 0.1762126601 -1.093409367e-13 1.36053452)
(-0.4184948277 -5.448464032e-13 2.457279093 2.541612812e-13 -0.3487960516 0 0.188304817 -8.562559876e-14 1.406475959)
(-0.4770097985 -2.31067605e-13 3.133199269 2.797358557e-13 -0.3589455743 0 0.1933049624 -6.748047447e-14 1.473818995)
(-0.5542656189 -1.700295849e-13 3.956502414 2.508747331e-13 -0.3735026584 0 0.1906140193 -1.141623665e-13 1.564029198)
(-0.6507259071 -3.001555052e-13 4.950464199 2.594061564e-13 -0.3928185317 0 0.1798922484 -6.219287151e-14 1.677658076)
(-0.7662695448 -2.442412535e-13 6.141981254 2.594868788e-13 -0.4170961451 0 0.1609686343 -3.802338225e-14 1.814721119)
(-0.9004894454 -2.245408652e-13 7.562801723 2.569893084e-13 -0.4464242364 0 0.1336826575 -2.104415409e-14 1.974895907)
(-1.052689483 -2.048707217e-13 9.250540661 2.556300423e-13 -0.4808058905 1.733544128e-12 0.0977889543 -1.688232858e-14 2.157559754)
(-1.221880549 -2.02938575e-13 11.24981676 2.49529064e-13 -0.5201677917 0 0.05301598722 -2.110109953e-16 2.361699749)
(-1.406821685 -2.438468487e-13 13.61353906 2.493127384e-13 -0.5643732835 -1.595601525e-12 -0.0008284199341 3.62074893e-15 2.585721232)
(-1.605653932 -1.299634647e-13 16.40419654 2.497790671e-13 -0.6132294976 0 -0.06388998504 -1.953937187e-15 2.827326468)
(-1.815472956 -9.073295702e-15 19.69530313 2.377086693e-13 -0.6664589533 0 -0.136422888 -6.847396752e-15 3.083414115)
(-2.032577414 -3.287148076e-14 23.57366087 2.282974051e-13 -0.7236740258 0 -0.2185928008 -1.143005783e-14 3.349820655)
(-2.25229051 -4.16938883e-14 28.14178617 2.17095577e-13 -0.7843895908 0 -0.3103615991 -1.161348692e-14 3.621099012)
(-2.468490629 -3.74583694e-14 33.5203738 2.122552916e-13 -0.8479926877 0 -0.4116939904 -7.639739077e-15 3.89045496)
(-2.673737898 -2.376570314e-14 39.85165615 2.040372562e-13 -0.9137242268 0 -0.5223686427 -2.646878655e-15 4.149468978)
(-2.859112126 -3.672355461e-15 47.30281849 1.977836619e-13 -0.9806754736 0 -0.6420074141 3.306490708e-15 4.388086134)
(-3.014061551 2.213219898e-14 56.06980388 1.920624725e-13 -1.047768936 0 -0.7700063439 1.143266451e-14 4.594527427)
(-3.126614536 5.325673181e-14 66.38132894 1.842821468e-13 -1.113753309 0 -0.9054879118 1.820638222e-14 4.75539128)
(-3.183498947 9.329696615e-14 78.50286568 1.769740823e-13 -1.177207841 0 -1.047212524 2.114016725e-14 4.855870122)
(-3.170547496 8.81247717e-14 92.74009817 1.676127862e-13 -1.236548279 0 -1.193483476 2.220873505e-14 4.880193738)
(-3.073338896 9.100491443e-14 109.4417237 1.63540918e-13 -1.290054482 0 -1.342087837 2.144307614e-14 4.81225369)
(-2.878078574 4.401428682e-14 129.0010812 1.524782339e-13 -1.335906553 0 -1.490191616 2.465459492e-14 4.636577289)
(-2.572702789 6.147618496e-16 151.855791 1.513722002e-13 -1.372245228 6.15099734e-13 -1.634304407 2.789915445e-14 4.339431535)
(-2.148150212 4.634641333e-14 178.4853127 1.456668191e-13 -1.397242864 0 -1.770256302 2.927820677e-14 3.910267194)
(-1.599729037 7.485641255e-14 209.4059587 1.401724839e-13 -1.409195349 0 -1.893289039 2.394468225e-14 3.343090474)
(-0.9284824145 1.044185974e-13 245.1632443 1.395944854e-13 -1.406619769 0 -1.99819642 2.447205955e-14 2.637950992)
(-0.1422818118 1.325660768e-13 286.3219258 1.297129797e-13 -1.388363549 0 -2.079583761 2.952630558e-14 1.802068394)
(-0.2885378416 -4.486442683e-14 0.1465588872 4.735585429e-13 -0.4726915429 0 0.01631666441 -1.958508398e-13 1.422829854)
(-0.3818881001 -1.933355556e-13 0.3391296393 1.987048763e-13 -0.4130201404 0 0.04258850718 -6.516819038e-13 1.420853878)
(-0.3739438594 -2.860491332e-13 0.5600041673 2.299031613e-13 -0.393739744 0 0.0673081472 -2.910632369e-13 1.416895921)
(-0.3806400814 -2.265801065e-13 0.8076533066 2.448934898e-13 -0.3895324678 0 0.09251717172 -2.457839475e-13 1.413089878)
(-0.3828477436 -2.084219998e-13 1.093545516 2.304571889e-13 -0.3875923628 0 0.1165483665 1.002567862e-15 1.41220734)
(-0.3897694401 -2.774997853e-13 1.434483635 2.321485256e-13 -0.3868636003 0 0.1381892196 -6.641770447e-14 1.418039272)
(-0.4064899636 -3.290795298e-13 1.85066595 2.432360155e-13 -0.3879203624 0 0.1561512944 6.920245128e-14 1.434870776)
(-0.4363414194 -3.295952528e-13 2.363933703 2.567415987e-13 -0.3914979828 0 0.1690987069 1.345632642e-14 1.466850036)
(-0.4817399397 -2.823704952e-13 2.997081508 2.633496549e-13 -0.3982768162 0 0.1760620769 -3.30465029e-14 1.517376453)
(-0.5442966957 -2.473249364e-13 3.773495688 2.616418891e-13 -0.4088159638 0 0.1763048565 4.684063103e-14 1.588642304)
(-0.6248496959 -2.138631693e-13 4.718043331 2.594061564e-13 -0.4235416942 0 0.1693304506 4.561350669e-14 1.681688091)
(-0.7234994491 -1.821523998e-13 5.858617726 2.547860296e-13 -0.4427384715 0 0.1548461186 -4.0746692e-14 1.796746841)
(-0.8397916157 -1.602622759e-13 7.227696155 2.498754175e-13 -0.4665567991 0 0.1326591897 -4.159982834e-14 1.933533357)
(-0.9729583547 -1.811385116e-13 8.863715648 2.420867288e-13 -0.49503413 1.733544128e-12 0.1025905138 -5.396562596e-14 2.091360656)
(-1.122055556 -1.970016264e-13 10.81241749 2.398071524e-13 -0.5281239318 0 0.06448188802 -5.651415222e-14 2.269096594)
(-1.28582555 -1.601085675e-13 13.12815874 2.368471014e-13 -0.5657151185 -1.595601525e-12 0.01820617068 -8.02922644e-14 2.465084896)
(-1.462219715 -1.292625481e-13 15.87520961 2.31722749e-13 -0.6076295752 0 -0.03644754617 -1.473638743e-13 2.677066301)
(-1.648324351 -1.12150834e-13 19.12954926 2.245836508e-13 -0.6535892605 0 -0.09972801665 -1.204346044e-13 2.902031282)
(-1.840710166 -1.028365817e-13 22.98113749 2.197894273e-13 -0.7032183784 0 -0.1717096107 -7.388459532e-14 3.135884139)
(-2.034864997 -9.027464116e-14 27.53607622 2.143300282e-13 -0.7560552466 0 -0.252435397 -4.562553757e-14 3.373394359)
(-2.224928632 -7.541579646e-14 32.91937602 2.095514025e-13 -0.8115076924 0 -0.3418824097 -2.440238169e-14 3.608056515)
(-2.403860594 -5.783574315e-14 39.27817801 2.040372562e-13 -0.8688527323 0 -0.4398337969 -7.792793889e-15 3.831869543)
(-2.563216478 -3.817216541e-14 46.78499677 2.029884951e-13 -0.9272229276 0 -0.5459415607 6.427002856e-15 4.035378786)
(-2.693157502 -1.46772741e-14 55.64136178 1.946233055e-13 -0.9855966759 0 -0.6596153473 2.179705034e-14 4.207569348)
(-2.782632494 1.18282553e-14 66.08145901 1.842821468e-13 -1.042794703 0 -0.7799882335 3.696178195e-14 4.33608785)
(-2.819602021 3.679008418e-14 78.37559376 1.79466675e-13 -1.097488352 0 -0.9058476791 5.011610844e-14 4.40742988)
(-2.791404141 5.601134424e-14 92.83305859 1.72542574e-13 -1.148211618 0 -1.035532996 6.488916695e-14 4.40750382)
(-2.685424091 7.035253404e-14 109.8041325 1.708636457e-13 -1.193387754 0 -1.166911475 6.279843248e-14 4.322184851)
(-2.489965315 7.389446155e-14 129.6808709 1.573188127e-13 -1.231370925 0 -1.29727946 6.454931441e-14 4.138298681)
(-2.195216981 7.148131674e-14 152.8959445 1.585804002e-13 -1.260503957 6.15099734e-13 -1.423378273 3.211045567e-14 3.844597477)
(-1.79437434 7.56784646e-14 179.9195506 1.504427804e-13 -1.279186591 0 -1.541391556 3.306593935e-14 3.433037671)
(-1.284769006 8.957990604e-14 211.2541103 1.401724839e-13 -1.285958432 0 -1.647063033 3.288714805e-14 2.899900631)
(-0.6689726052 1.125147818e-13 247.4266646 1.395944854e-13 -1.279585099 0 -1.735841212 3.127059222e-14 2.246973803)
(0.04443740228 1.389071242e-13 288.9794669 1.297129797e-13 -1.259151097 0 -1.803139308 2.799585224e-14 1.482383118)
(0.8403976665 1.662641501e-13 336.4599087 1.294084706e-13 -1.224137775 0 -1.844634434 2.231812647e-14 0.6211764707)
(1.697329087 1.98138932e-13 390.4090519 1.198125119e-13 -1.174495627 0 -1.856591733 2.773099967e-14 -0.3146624119)
(2.587587021 2.373767194e-13 451.3500636 1.126776037e-13 -1.110687961 0 -1.83623857 3.289922975e-14 -1.296539074)
(3.478096463 2.832409166e-13 519.7780786 1.056299434e-13 -1.033716519 0 -1.782061425 4.049407109e-14 -2.290222257)
(4.331777864 3.323026781e-13 596.1508861 9.865035051e-14 -0.9451218094 0 -1.69407153 2.810664238e-14 -3.256799823)
(5.109072491 3.818545428e-13 680.8825396 9.17211571e-14 -0.8469468502 0 -1.57395299 1.675920911e-14 -4.154408503)
(5.769375177 4.339924818e-13 774.3385496 8.246975467e-14 -0.7416851285 0 -1.425118936 4.360371551e-15 -4.93995826)
(6.272616763 4.896682416e-13 876.8315663 7.440661592e-14 -0.6322073927 0 -1.252646944 1.481083167e-15 -5.570566658)
(6.580847526 5.507972267e-13 988.6206654 6.633967468e-14 -0.5216763052 0 -1.063150893 -3.283752335e-15 -6.005175213)
(6.659754219 6.204682803e-13 1109.914257 5.58760577e-14 -0.4134482559 0 -0.8645197124 -3.222914483e-15 -6.206124553)
(6.480700884 6.978153912e-13 1240.873775 4.535983058e-14 -0.3109713705 0 -0.6656169551 -4.657480362e-16 -6.140346081)
(6.021797783 6.031144235e-13 1381.618753 3.41743118e-14 -0.2176612506 3.069692569e-13 -0.4758682324 1.340810629e-14 -5.780016021)
(5.25652317 4.997897889e-13 1532.236929 2.771708047e-14 -0.1368054328 0 -0.3048857874 -2.234246679e-15 -5.10312944)
(4.124237002 5.589129969e-13 1692.808505 2.014349264e-14 -0.07177486961 0 -0.1627679821 -6.639365795e-15 -4.093689338)
(2.600117098 6.152986106e-13 1863.48036 1.226345507e-14 -0.02667108052 0 -0.06145628677 -5.877944204e-15 -2.741313774)
(1.255229647 6.650269582e-13 2044.704948 4.205986621e-15 -0.004688155016 0 -0.01097678177 -2.465806787e-15 -1.039091755)
(-0.319347865 9.817917928e-13 0.1490978044 -6.244179099e-13 -0.5229628322 0 0.01368470064 1.670729613e-14 1.506194377)
(-0.4229318993 -3.681305506e-13 0.3448646691 -1.076147371e-12 -0.4570545071 0 0.03575259286 3.020934608e-14 1.504245257)
(-0.4144406296 -1.049214434e-12 0.5675274246 -5.305457569e-14 -0.4359153037 0 0.05665246198 -1.203234097e-13 1.500140768)
(-0.4214164263 -4.928440416e-13 0.8134900753 1.521308043e-13 -0.4314070625 0 0.07812916904 3.906673842e-15 1.495506419)
(-0.4218128794 -2.098882434e-13 1.092523652 1.90893723e-13 -0.4291323073 0 0.09892758798 6.796334775e-14 1.492410116)
(-0.4248534003 -3.824580653e-13 1.419609537 1.747354494e-13 -0.4277232944 0 0.1182052374 7.966348522e-14 1.493710049)
(-0.4352016855 -5.037286784e-13 1.81387446 2.425120988e-13 -0.4275847523 0 0.1349750649 6.581141611e-14 1.503096947)
(-0.4561759723 -3.495095592e-13 2.297132906 2.619022339e-13 -0.4293235582 0 0.147983503 3.852798339e-14 1.524404232)
(-0.4905482543 -3.07554449e-13 2.893225782 2.656905407e-13 -0.4336000125 0 0.156121351 1.61735416e-14 1.561227084)
(-0.5403034055 -3.20051607e-13 3.62740472 2.691788982e-13 -0.4409995277 0 0.1585418804 2.371905119e-15 1.616300862)
(-0.6066332877 -1.158425093e-13 4.526429381 2.74429679e-13 -0.4520036753 0 0.1546138211 7.334276427e-17 1.691245529)
(-0.6899150464 -7.014364869e-14 5.61967052 2.472646708e-13 -0.4669596206 0 0.1439126535 1.761064481e-14 1.786681353)
(-0.7898855703 -1.958890444e-13 6.94071318 2.43650763e-13 -0.486080266 0 0.1261812866 3.730462984e-14 1.902479802)
(-0.9058454158 -1.735055186e-13 8.529009139 2.395473575e-13 -0.5094572746 1.733544128e-12 0.1012620685 6.543973626e-14 2.037954829)
(-1.036843553 -1.439979036e-13 10.43142235 2.365665152e-13 -0.5370846765 0 0.06904570612 5.670477652e-14 2.191918059)
(-1.181442043 -3.874207958e-14 12.70362409 2.274978737e-13 -0.5688814931 -1.595601525e-12 0.02939448285 5.137416135e-14 2.362689128)
(-1.337427884 -4.44942474e-14 15.41158271 2.166758172e-13 -0.6046757579 0 -0.01794484419 3.647934715e-14 2.548039448)
(-1.502125631 -1.8014857e-13 18.63366766 2.100002968e-13 -0.6441954678 0 -0.07314304796 1.464969497e-14 2.74494134)
(-1.67222474 -2.08084034e-13 22.46276866 2.112814495e-13 -0.6870920603 0 -0.1362211463 -2.644420892e-14 2.949400474)
(-1.843223828 -1.60085842e-13 27.00837666 2.101817051e-13 -0.7329168042 0 -0.2072700954 -3.06375139e-14 3.156414303)
(-2.009595347 -1.297338648e-13 32.39953018 2.095514025e-13 -0.7810981717 0 -0.2862405337 -1.920003799e-15 3.359730762)
(-2.164691686 -1.004659907e-13 38.7878068 2.053621734e-13 -0.8309469732 0 -0.3729497608 1.004440734e-14 3.551784892)
(-2.30057888 -7.887050476e-14 46.35054021 2.003860785e-13 -0.8816366621 0 -0.4670539535 7.418369875e-15 3.723684076)
(-2.408136714 -5.686099528e-14 55.29417806 1.946233055e-13 -0.9322021034 0 -0.5679706057 4.140765484e-14 3.865199834)
(-2.477204414 -2.128001245e-14 65.85754476 1.893309727e-13 -0.9815359583 0 -0.6748456769 7.536159673e-14 3.964986741)
(-2.496913959 1.820517663e-14 78.3148112 1.869444532e-13 -1.028400192 0 -0.7864960819 7.15221025e-14 4.0108299)
(-2.456015517 5.429265844e-14 92.97780627 1.799372558e-13 -1.071443473 0 -0.9013229806 7.078371418e-14 3.990197312)
(-2.343557222 9.174386156e-14 110.1973569 1.684227365e-13 -1.109226407 0 -1.017286277 6.94446664e-14 3.89080606)
(-2.149684751 1.329528325e-13 130.3633476 1.64579681e-13 -1.14026733 0 -1.131846207 6.369104744e-14 3.701507112)
(-1.866507109 9.000395048e-14 153.9029634 1.561776668e-13 -1.16309431 1.230199468e-12 -1.241997212 4.593721858e-14 3.413197455)
(-1.489069368 4.411467752e-14 181.2772057 1.504427804e-13 -1.176311984 0 -1.344283796 4.961083468e-14 3.019865109)
(-1.016262496 8.031565935e-14 212.9754685 1.449240935e-13 -1.178673338 0 -1.434933029 5.699744896e-14 2.519568016)
(-0.4516864615 1.194764838e-13 249.5080652 1.395944854e-13 -1.169156502 0 -1.509986818 5.664249964e-14 1.915292789)
(0.1958417883 1.606004224e-13 291.3974398 1.344298153e-13 -1.1470404 0 -1.565572061 4.882476135e-14 1.215618462)
(0.9119141185 1.611149246e-13 339.1691041 1.270555894e-13 -1.111967825 0 -1.598131042 6.273620285e-14 0.4349873868)
(1.676688095 1.598326071e-13 393.3413479 1.245110417e-13 -1.064003182 0 -1.604699954 5.199908864e-14 -0.4062839679)
(2.465386037 1.895772257e-13 454.4151225 1.173725039e-13 -1.003660416 0 -1.583192334 3.783605709e-14 -1.282463338)
(3.248875182 2.894049556e-13 522.8648889 1.103246076e-13 -0.9319187506 0 -1.532620969 1.972604346e-14 -2.163277281)
(3.994903005 3.958629741e-13 599.130658 1.033479862e-13 -0.8502152121 0 -1.45332569 2.466842803e-14 -3.014764535)
(4.669341763 4.434728051e-13 683.6130911 9.407298164e-14 -0.7604093746 0 -1.347032153 2.654733048e-14 -3.800744124)
(5.237349227 4.64451526e-13 776.6685545 8.364789402e-14 -0.6647354604 0 -1.216877172 8.908690756e-14 -4.484163249)
(5.66471736 4.916105274e-13 878.6050704 7.440661592e-14 -0.5657390355 0 -1.067329943 2.188651178e-14 -5.028253798)
(5.919100449 5.407127725e-13 989.6823121 6.633967468e-14 -0.4662017136 0 -0.9040972238 1.899975728e-14 -5.397921107)
(5.971196059 5.888325028e-13 1110.114227 5.647048385e-14 -0.369060835 0 -0.7338805615 1.614000206e-14 -5.560981826)
(5.796490066 6.541592354e-13 1240.071571 4.595667046e-14 -0.2773234383 0 -0.5641400044 1.159836726e-14 -5.488982917)
(5.376091803 6.073721605e-13 1379.686311 3.657250912e-14 -0.1939628305 0 -0.4027535765 2.862115845e-14 -5.157804678)
(4.686571894 5.525086716e-13 1529.061171 2.862089831e-14 -0.1218396852 0 -0.2577193122 4.598704297e-15 -4.548100001)
(3.673690728 5.942543312e-13 1688.292345 2.059785713e-14 -0.06389618493 0 -0.1374274908 -1.947719759e-14 -3.645436182)
(2.314784819 6.315183213e-13 1857.539363 1.241579613e-14 -0.02373686934 0 -0.05182153618 -1.785665322e-14 -2.439965691)
(1.117093236 6.672468209e-13 2037.249787 4.196405786e-15 -0.004171367896 0 -0.009237330807 -1.5746494e-14 -0.9246335487)
(-0.344980356 -7.943376337e-14 0.1515391479 5.854542323e-13 -0.564728021 0 0.011257633 4.333522907e-13 1.575513294)
(-0.4572202452 1.028412963e-13 0.3505123276 2.663055043e-13 -0.4936695541 -2.237512504e-11 0.02944731898 1.459230135e-12 1.573663702)
(-0.4484520538 -3.047397852e-13 0.5754565125 6.652875365e-14 -0.4710839881 0 0.046769786 8.163256978e-13 1.569688487)
(-0.4559554684 -5.516408485e-13 0.8211654369 2.510776689e-13 -0.4664102685 0 0.06463153744 4.202603664e-13 1.564877235)
(-0.4554426045 -3.384424623e-13 1.09617186 2.828787812e-13 -0.463994627 0 0.08216810526 3.179538516e-13 1.560700157)
(-0.4561733716 -2.704092834e-13 1.413725109 2.820729397e-13 -0.4622393581 -3.408173336e-12 0.09879231504 3.759339109e-13 1.559279908)
(-0.4622285052 -2.501556413e-13 1.791553157 2.808796846e-13 -0.4614147488 2.965162856e-12 0.1137863571 1.551971862e-13 1.563619726)
(-0.4764957152 -2.348202386e-13 2.250863585 2.748038218e-13 -0.4619700919 0 0.1261280677 7.761473661e-14 1.577129961)
(-0.5019167029 -2.124411033e-13 2.815781852 2.703723124e-13 -0.4644759203 0 0.1346769574 5.395744073e-14 1.603245926)
(-0.5408081124 -2.162021778e-13 3.512866349 2.627186047e-13 -0.4695124233 0 0.1385217245 -7.249385206e-14 1.644957252)
(-0.5946708971 -2.463231722e-13 4.370684763 2.604077246e-13 -0.4775830151 0 0.1369270458 -1.053978115e-13 1.70435964)
(-0.6642265882 -2.592940706e-13 5.420375561 2.58546709e-13 -0.4890811576 -1.925467854e-12 0.1293559828 6.021464627e-14 1.782515657)
(-0.7494684842 -2.616074324e-13 6.697002159 2.605462539e-13 -0.5042763785 0 0.1154648146 7.050169756e-14 1.879574414)
(-0.8498619238 -2.203301363e-13 8.241274903 2.598623277e-13 -0.523314507 0 0.09505850367 1.255337214e-13 1.994959378)
(-0.9644366789 -1.664719125e-13 10.10124216 2.543900198e-13 -0.5462381387 0 0.06800910551 1.226696886e-13 2.127516698)
(-1.091545085 -1.144656501e-13 12.33384521 2.493127384e-13 -0.5729937766 -1.595601525e-12 0.03411120065 1.550984335e-13 2.275597415)
(-1.228991718 -4.548904943e-14 15.00683322 2.40750908e-13 -0.6034181661 -1.540805811e-12 -0.006841458476 2.264968953e-13 2.436956149)
(-1.374312094 3.450159499e-14 18.20087302 2.289586569e-13 -0.6372606576 0 -0.05490436103 2.25465278e-13 2.608540507)
(-1.524187785 1.750339189e-15 22.01142894 2.155354384e-13 -0.6741970717 0 -0.110164247 1.671895706e-13 2.786471219)
(-1.674232459 -1.510005822e-13 26.55118234 2.101817051e-13 -0.7137918813 0 -0.1727108755 1.355652866e-13 2.96593618)
(-1.819207204 -1.739942051e-13 31.95291125 2.08199458e-13 -0.7555003594 0 -0.2424426947 1.136691523e-13 3.140947737)
(-1.952795968 -8.031016951e-14 38.37224667 2.080120079e-13 -0.7986631354 0 -0.3191964794 1.008353968e-13 3.304383873)
(-2.06760447 -1.197797822e-13 45.99082036 2.003860785e-13 -0.8424950523 0 -0.4026205013 9.122454045e-14 3.44789354)
(-2.155205569 -1.904544495e-13 55.01932113 2.023058044e-13 -0.8860863109 0 -0.4921513224 7.706702082e-14 3.562038165)
(-2.206302853 -6.555338405e-14 65.70044891 2.019530375e-13 -0.9284002749 0 -0.586956579 6.701967171e-14 3.636431376)
(-2.211126916 4.891469774e-14 78.31137738 1.919296386e-13 -0.9682871231 0 -0.685887971 6.992749061e-14 3.66009828)
(-2.159751221 6.171863279e-14 93.16558514 1.848670436e-13 -1.004505182 0 -0.7874232613 7.805688667e-14 3.621932633)
(-2.042724315 9.034939682e-14 110.6136388 1.806272826e-13 -1.035746045 0 -0.8896245249 9.276188966e-14 3.511326502)
(-1.851796618 1.412796681e-13 131.0426391 1.694202599e-13 -1.060680246 0 -0.9901383652 1.162878945e-13 3.31889209)
(-1.580695364 1.111217239e-13 154.8740994 1.609831335e-13 -1.078005135 0 -1.086207081 1.529561954e-13 3.037344835)
(-1.225944158 4.286238689e-14 182.5601086 1.552187416e-13 -1.086507579 0 -1.174732533 1.596247911e-13 2.662306322)
(-0.7876187574 6.884729686e-14 214.577978 1.52051508e-13 -1.085126017 0 -1.25239183 1.392932287e-13 2.193184417)
(-0.2699564751 1.379077803e-13 251.423013 1.443265018e-13 -1.073018737 0 -1.315773938 1.342472917e-13 1.633769984)
(0.3182843906 1.187799628e-13 293.6004142 1.415050688e-13 -1.04962276 0 -1.361614869 1.426567977e-13 0.9927580408)
(0.9635203525 1.574408453e-13 341.6168828 1.294084706e-13 -1.014707167 -1.204675218e-12 -1.386978548 1.27922872e-13 0.2837941652)
(1.647637856 2.789293273e-13 395.9713096 1.245110417e-13 -0.9684172855 0 -1.389532048 9.290773635e-14 -0.4744749067)
(2.348433732 3.440389823e-13 457.1461288 1.173725039e-13 -0.9112924646 0 -1.367724925 6.100189995e-14 -1.258968285)
(3.040239686 3.262952047e-13 525.598763 1.126719396e-13 -0.8442757851 6.009170113e-13 -1.320954201 2.79935069e-14 -2.042854216)
(3.694945128 3.091035141e-13 601.754797 1.033479862e-13 -0.7686988411 0 -1.249753222 4.04337035e-14 -2.796415597)
(4.282943955 1.539090019e-13 686.0039153 9.524889391e-14 -0.6862510589 0 -1.155809549 5.414576043e-14 -3.488269248)
(4.774135 4.574033994e-13 778.6948242 9.189486949e-14 -0.5989358885 -6.032073484e-13 -1.041968904 7.612096392e-14 -4.086327646)
(5.139091029 7.401008512e-13 880.1318907 7.558767331e-14 -0.5090164274 0 -0.9121609516 9.189787555e-14 -4.558817217)
(5.350006315 5.720026926e-13 990.575553 6.752431172e-14 -0.41894841 -3.032670842e-13 -0.7712985584 6.808325601e-14 -4.875487839)
(5.381607005 6.483865723e-13 1110.243996 5.706490999e-14 -0.3313148191 0 -0.6250887537 4.737832255e-14 -5.008580605)
(5.212673156 6.488290589e-13 1239.31519 4.774719008e-14 -0.2487527732 3.055820165e-13 -0.4798284939 3.306080646e-14 -4.933348166)
(4.826692622 6.326756013e-13 1377.931073 3.687228379e-14 -0.1738668493 0 -0.3421316115 2.133670413e-14 -4.628638454)
(4.202733121 6.910737733e-13 1526.206293 2.801835309e-14 -0.1091634202 0 -0.2186865662 4.516113969e-15 -4.077228723)
(3.291887933 6.484747173e-13 1684.249671 1.817457982e-14 -0.05722937302 0 -0.1164989239 -1.57947222e-14 -3.26592766)
(2.073309422 5.998703594e-13 1852.230423 1.039727713e-14 -0.02125633771 0 -0.04388535617 7.167627376e-15 -2.185289484)
(1.000333351 5.229987309e-13 2030.590881 2.586825484e-15 -0.003734921738 3.924310068e-14 -0.007812276388 -1.327382864e-14 -0.8280923805)
(-0.3658710942 -1.641235645e-12 0.1538237587 2.288866291e-12 -0.5986760627 0 0.009060765021 -2.633970949e-13 1.631842333)
(-0.4852253838 -4.862249321e-13 0.3558344445 2.216481197e-12 -0.5234807107 0 0.02371372629 7.363000233e-14 1.630144102)
(-0.4763169698 7.140442573e-13 0.5831356517 1.059407242e-12 -0.4997673169 -6.898779112e-12 0.03766722512 3.342809848e-13 1.626478549)
(-0.4845231861 3.433270192e-13 0.8294060257 5.652339639e-13 -0.4950034185 0 0.05212452733 1.970325799e-13 1.621868168)
(-0.4837471024 -1.527211602e-13 1.102288534 4.361872116e-13 -0.4925911403 0 0.0665489109 1.354100161e-13 1.617319)
(-0.4831662685 -4.733393506e-14 1.413501896 4.152047106e-13 -0.490720043 0 0.08047139069 1.081536808e-13 1.614450887)
(-0.4864514602 4.276905595e-14 1.779255994 3.257625208e-13 -0.4895418146 -2.965162856e-12 0.0933279647 7.181921946e-14 1.615565826)
(-0.4959378352 -1.60467279e-13 2.2198582 2.980266799e-13 -0.4893877597 0 0.1044173724 4.566890931e-14 1.623596526)
(-0.5143978336 -4.943521083e-15 2.759223031 2.87928956e-13 -0.4907061922 0 0.1127393482 3.58702966e-14 1.64165016)
(-0.544370075 -1.030135026e-14 3.424532341 2.411842928e-13 -0.4940314345 0 0.117318235 6.656882475e-14 1.672693778)
(-0.5876000254 -4.00464905e-13 4.245815453 2.39374793e-13 -0.4998630346 0 0.1173619918 1.39791654e-14 1.719098232)
(-0.6451032165 -4.225218796e-13 5.256010272 2.660680678e-13 -0.5086147744 0 0.1122587931 -2.012002885e-14 1.782314997)
(-0.7172036846 -3.366089618e-13 6.491910878 2.667709084e-13 -0.5205963529 0 0.101581406 -6.65745355e-14 1.862826016)
(-0.8035669984 -2.81638759e-13 7.995717155 2.759450125e-13 -0.5360051258 1.733544128e-12 0.08505671816 -3.734949362e-14 1.960273287)
(-0.9031415276 -2.109309863e-13 9.816754802 2.673525686e-13 -0.5549269303 0 0.06244975956 2.204682759e-15 2.07363945)
(-1.014248475 -2.725016838e-13 12.01339477 2.648947845e-13 -0.5773281042 -1.595601525e-12 0.03353188929 5.560653622e-14 2.201322713)
(-1.13494034 -1.998832063e-13 14.65521376 2.693400783e-13 -0.6030701614 0 -0.001803035045 7.582570934e-14 2.341032535)
(-1.262739168 -3.965276601e-14 17.82496731 2.610420356e-13 -0.6319385065 0 -0.04358907851 1.214305745e-13 2.489762506)
(-1.394201483 2.196232559e-15 21.62054216 2.467313571e-13 -0.6636220596 -1.452028217e-12 -0.09196700715 2.026675879e-13 2.643776082)
(-1.525228782 -3.216030716e-14 26.15761666 2.364544182e-13 -0.6977002294 -1.415960961e-12 -0.146974513 2.153943903e-13 2.79839192)
(-1.650868222 -4.53007039e-14 31.57231807 2.325344596e-13 -0.7336605549 0 -0.208516517 1.692060309e-13 2.947902882)
(-1.765100279 -4.471595712e-14 38.02393532 2.225860977e-13 -0.7708738089 0 -0.2764310219 1.677087932e-13 3.08560497)
(-1.861041594 -1.828299321e-14 45.69789506 2.133981615e-13 -0.8085976066 -1.332437301e-12 -0.3503511358 1.574185662e-13 3.203700362)
(-1.930910953 5.534300152e-15 54.8085385 2.074274703e-13 -0.8459755324 0 -0.4297290299 8.223804882e-14 3.293510659)
(-1.966258613 -3.157981459e-15 65.60175322 2.019530375e-13 -0.8820397857 1.29249944e-12 -0.5137507858 1.474554578e-14 3.345569074)
(-1.958333358 -1.171323839e-14 78.35699481 1.96914824e-13 -0.9157263074 0 -0.6013070899 2.968998505e-14 3.350053627)
(-1.898424477 -8.540472275e-15 93.38866561 1.922617253e-13 -0.945897145 0 -0.6909556331 4.178284024e-14 3.297162063)
(-1.778410608 -1.531050776e-14 111.0464513 1.879500103e-13 -0.9713675427 0 -0.7808794655 5.351369634e-14 3.177772025)
(-1.591429759 -3.872226726e-14 131.7143018 1.81521707e-13 -0.9909472295 0 -0.8689138817 6.875065753e-14 2.984023906)
(-1.33256456 -3.387760147e-14 155.8080086 1.778022668e-13 -1.003487259 0 -0.9525553803 9.240753484e-14 2.710141488)
(-0.999495432 8.577374603e-14 183.771231 1.695466255e-13 -1.00793511 -1.222646088e-12 -1.029044967 8.720777358e-14 2.353069186)
(-0.5931521433 1.55763703e-13 216.0701939 1.63930532e-13 -1.003389286 0 -1.095475605 7.340395319e-14 1.913203236)
(-0.118142634 1.084759319e-13 253.1868152 1.608885594e-13 -0.9891584838 0 -1.148925537 6.803450709e-14 1.394839868)
(0.4169720223 1.815106522e-13 295.6112455 1.532971578e-13 -0.9648086732 -6.037549601e-13 -1.186644861 7.198380895e-14 0.8065452128)
(0.9995600864 3.202377124e-13 343.8340074 1.411728771e-13 -0.9302081614 0 -1.206216566 4.434254437e-14 0.1611371592)
(1.613201996 3.763274657e-13 398.3375825 1.362573664e-13 -0.8855570744 0 -1.205803663 4.129123535e-14 -0.5243717489)
(2.237978016 4.037637059e-13 459.5887317 1.220674041e-13 -0.8314020084 0 -1.184263921 4.357921734e-14 -1.229333801)
(2.851204384 3.561709654e-13 528.0306235 1.150192717e-13 -0.7686412418 0 -1.141281067 5.299446638e-14 -1.929912238)
(3.428286481 3.062385985e-13 604.0771062 1.056968041e-13 -0.6985044328 0 -1.077488132 4.55592687e-14 -2.600000826)
(3.943417452 3.185206429e-13 688.1086946 9.995254299e-14 -0.6225257096 0 -0.9944886187 3.507120661e-14 -3.212223288)
(4.370443058 3.305693347e-13 780.4675781 9.425114819e-14 -0.5425043326 0 -0.8948409948 -3.150682896e-14 -3.738625126)
(4.683839407 5.228162782e-13 881.455096 8.503613247e-14 -0.4604576379 -3.023506932e-13 -0.7819936983 3.633655928e-14 -4.151573296)
(4.85948355 7.048335922e-13 991.3322655 7.344749696e-14 -0.3785630445 0 -0.6601777799 3.799496878e-14 -4.424759573)
(4.875376285 7.201687539e-13 1110.320568 6.182031916e-14 -0.2991030104 0 -0.5342641792 4.004656128e-14 -4.533981912)
(4.712948258 7.537796209e-13 1238.603607 5.013454959e-14 -0.2244034971 0 -0.4095852959 5.132246465e-14 -4.457523568)
(4.357600535 7.190645706e-13 1376.331219 3.897070644e-14 -0.1567603078 0 -0.2917160478 4.494255477e-14 -4.176637955)
(3.790443171 7.003676216e-13 1523.627526 2.922344354e-14 -0.09838417939 0 -0.1862756278 4.390030634e-14 -3.675821302)
(2.96705766 5.811085251e-13 1680.611377 1.862894432e-14 -0.05156579389 0 -0.09914299782 4.836402689e-14 -2.942893058)
(1.86813198 6.235420991e-13 1847.459496 1.317750141e-14 -0.01915136427 7.799862109e-14 -0.03731114859 3.174099407e-14 -1.968751733)
(0.9012777911 6.397306249e-13 2024.609036 2.816765528e-15 -0.003365191091 0 -0.006632543137 1.998366089e-14 -0.7460820302)
(-0.3824577749 -9.395011386e-13 0.1558783546 -1.184895426e-12 -0.625666212 0 0.007066967724 -1.98453009e-13 1.676306458)
(-0.5073998339 -9.243166914e-13 0.3606171892 4.315514839e-13 -0.5471621254 0 0.01847613312 -7.452041154e-13 1.674829382)
(-0.4984324628 -4.274367155e-13 0.5901950141 5.23808668e-13 -0.5225088152 0 0.02932512476 -5.672821116e-13 1.671603557)
(-0.507485656 -2.105821668e-13 0.8374887824 4.440240548e-13 -0.5176999349 0 0.04067992396 -1.694582603e-13 1.667391986)
(-0.5068721889 -1.820943291e-13 1.109396811 3.877219659e-13 -0.5153906792 0 0.0521550313 -4.534557067e-14 1.662916954)
(-0.5055988651 -1.517315404e-13 1.416477729 3.52799193e-13 -0.5135534301 0 0.06341319139 -7.409892839e-14 1.659448473)
(-0.5071810158 -1.335612196e-13 1.773576621 3.199711871e-13 -0.5122321462 0 0.07403311029 1.336565634e-14 1.658674239)
(-0.5135118895 -1.674258209e-13 2.199829288 2.954463624e-13 -0.5116953134 0 0.08350427149 8.677075339e-15 1.66298664)
(-0.5268376484 -2.569087899e-13 2.718631988 2.844176273e-13 -0.5122800406 0 0.09107002399 -4.497325131e-14 1.675142609)
(-0.5496703494 -1.657553184e-13 3.357327177 2.864063477e-13 -0.514426748 0 0.09580452664 1.295158523e-13 1.6979158)
(-0.5840309627 -7.181948017e-14 4.146917565 2.644139973e-13 -0.5186039084 0 0.09687280137 1.039212248e-13 1.733729302)
(-0.6312134202 -9.183366095e-14 5.121936464 2.538458597e-13 -0.5252306823 0 0.09361292214 -2.658035287e-15 1.784294652)