/*--------------------------------*- C++ -*----------------------------------*\
  =========                 |
  \\      /  F ield         | OpenFOAM: The Open Source CFD Toolbox
   \\    /   O peration     | Website:  https://openfoam.org
    \\  /    A nd           | Version:  7
     \\/     M anipulation  |
\*---------------------------------------------------------------------------*/
FoamFile
{
    version     2.0;
    format      ascii;
    class       volScalarField;
    location    "0.0006";
    object      p;
}
// * * * * * * * * * * * * * * * * * * * * * * * * * * * * * * * * * * * * * //

dimensions      [1 -1 -2 0 0 0 0];

internalField   nonuniform List<scalar> 
1167
(
583261.8229
585188.7869
585741.1084
586805.3679
588189.4829
589671.3247
591071.7946
592288.5947
593274.3543
594030.6001
594598.9606
595033.3103
595383.4155
595690.4579
595986.7225
596294.0973
596628.3399
597002.1805
597423.3736
597893.7675
598415.9834
598987.1554
599603.8607
600260.0113
600948.3115
601659.3275
602383.1892
603108.2084
603822.9821
604515.2044
605173.6794
605787.5971
606348.0488
606847.5784
571588.9271
573598.2893
574028.6736
574962.0739
576246.292
577679.1569
579122.9124
580460.4275
581617.5081
582567.7017
583325.1775
583929.7647
584427.5771
584860.8937
585261.908
585655.5045
586059.8745
586491.0481
586955.3624
587456.883
587998.6002
588577.8323
589192.3663
589835.7902
590501.9072
591181.34
591865.2805
592542.9377
593204.2025
593838.3367
594435.894
594988.0271
595487.7486
595929.4847
596309.8759
596627.2508
596881.9583
597075.8224
597211.9813
597294.7004
597328.9094
597319.9459
597273.3013
597194.4768
597088.8742
596961.8226
596817.8211
596657.5858
596478.8021
596307.0267
560208.8991
562276.8471
562609.6829
563431.5307
564617.6916
565973.7685
567407.4413
568802.6603
570076.5415
571177.9262
572097.4612
572856.9876
573492.795
574044.0178
574543.6873
575017.9383
575489.4852
575972.8658
576475.7228
577005.0762
577562.6747
578147.5387
578757.272
579386.4209
580029.1034
580676.96
581321.7737
581954.2227
582565.1881
583145.8035
583687.9934
584184.8773
584630.9625
585022.3725
585356.9832
585634.1583
585854.9447
586021.5364
586137.1717
586205.9168
586232.3011
586221.1082
586177.2093
586105.4061
586010.3735
585896.7055
585768.2524
585625.4932
585466.2139
585313.103
549050.0123
551158.6833
551410.8754
552147.9327
553243.0561
554516.7451
555902.2791
557311.6841
558653.6332
559865.3897
560917.3182
561811.9941
562573.3396
563234.4804
563826.2303
564377.5241
564911.9735
565443.3646
565981.6615
566535.3202
567105.6616
567693.8563
568296.7147
568910.5119
569529.2063
570146.0581
570753.1689
571342.9486
571907.1874
572438.8435
572931.1068
573378.8169
573777.7416
574125.433
574420.6846
574663.6754
574855.9
574999.7506
575098.4898
575155.9293
575176.2042
575163.5934
575122.4252
575056.9019
574971.0837
574868.9485
574753.8057
574625.9439
574483.2446
574345.9808
538060.3603
540192.754
540382.4439
541051.1545
542062.2377
543260.2283
544583.7268
545975.5197
547348.7801
548633.2656
549786.826
550795.2143
551668.0213
552429.0958
553107.3151
553732.0835
554324.3724
554899.5215
555470.934
556045.7443
556626.5532
557215.7851
557810.3419
558407.9112
559002.6703
559589.2925
560160.5693
560710.3236
561231.5574
561718.6267
562166.1168
562570.1859
562927.7902
563237.5141
563498.8996
563712.7799
563880.9022
564005.7488
564090.5177
564138.7602
564154.243
564140.7992
564102.266
564042.3343
563964.5473
563872.3655
563768.6466
563653.5261
563524.9772
563401.224
527193.9677
529344.9687
529490.9773
530099.3232
531036.185
532166.4784
533427.868
534779.5657
536155.3938
537483.2683
538710.2063
539809.1748
540776.4786
541627.5431
542386.7584
543078.833
543724.3378
544340.2932
544941.5536
545534.3786
546124.136
546712.5416
547298.0757
547878.8547
548450.1983
549007.6265
549545.1679
550057.6816
550539.5614
550986.3004
551393.8015
551759.3024
552080.7654
552357.5763
552589.8727
552778.9398
552926.6909
553035.6295
553108.823
553149.5704
553161.2978
553147.4427
553111.4132
553056.4608
552985.6889
552902.1215
552808.237
552704.0474
552587.6112
552475.4117
516429.9262
518593.3232
518702.2209
519258.0891
520135.1779
521199.7389
522401.9965
523707.2526
525064.0298
526409.126
527684.8826
528853.5559
529900.7512
530831.9499
531663.7775
532416.8236
533110.7457
533765.2178
534392.9696
535001.3475
535598.0992
536184.1145
536760.0945
537323.8792
537872.6233
538402.1928
538908.3023
539386.4301
539832.5499
540242.9518
540614.8913
540946.3557
541236.2648
541484.5738
541691.8923
541859.788
541990.2864
542085.8719
542149.454
542184.0804
542192.8556
542178.8909
542145.2154
542094.6974
542030.0649
541953.9725
541868.58
541773.7998
541667.7699
541565.487
505753.3866
507916.1271
507991.274
508499.7478
509328.8491
510332.2557
511481.3605
512739.9207
514067.3614
515410.1763
516713.6147
517933.1859
519045.248
520043.9775
520938.7402
521745.8125
522484.5089
523173.639
523824.5896
524447.266
525048.9756
525631.5923
526197.4054
526744.4133
527271.4003
527774.7206
528251.6078
528698.2364
529111.9283
529489.7623
529830.1116
530131.5971
530393.9736
530617.5895
530803.4375
530953.2548
531069.101
531153.4602
531209.0496
531238.6746
531245.1474
531231.2951
531199.8167
531153.2508
531094.0041
531024.4181
530946.3829
530859.7307
530762.6733
530668.9334
495140.1893
497293.9334
497339.8961
497811.0896
498598.1844
499547.8883
500644.6466
501858.4757
503152.7463
504482.8738
505797.6634
507050.6321
508210.9103
509264.3535
510212.5969
511067.018
511846.6692
512566.1177
513237.0968
513872.095
514477.0406
515055.8745
515611.087
516141.917
516648.0476
517126.8851
517576.6776
517994.6103
518378.9642
518727.719
519040.0375
519315.2026
519553.5341
519755.7108
519923.0918
520057.4587
520160.8648
520235.7647
520284.6886
520310.2215
520314.9218
520301.3441
520271.9059
520228.8656
520174.3562
520110.4517
520038.8139
519959.21
519869.9204
519783.5713
484578.2989
486714.2599
486734.5405
487179.2473
487926.0716
488830.7505
489875.9774
491047.4057
492306.4703
493615.9951
494930.1505
496202.53
497397.6823
498494.1139
499485.9047
500382.5701
501197.4468
501942.9077
502631.9812
503276.8558
503883.4327
504457.8267
505002.1106
505517.5335
506003.8074
506459.9956
506884.823
507276.7576
507634.6846
507957.5378
508245.0687
508497.1433
508714.5026
508898.1059
509049.5801
509170.7263
509263.5789
509330.4985
509373.8585
509396.0433
509399.3862
509386.2
509358.6566
509318.7725
509268.4459
509209.5228
509143.4705
509070.0043
508987.4685
508907.5414
474051.3107
476162.8947
476168.6882
476589.2876
477297.3424
478165.4258
479165.3251
480292.2595
481517.9032
482803.2667
484108.1971
485388.6478
486606.1543
487733.4403
488761.6238
489694.0438
490538.208
491305.3483
492010.1991
492662.7392
493269.9733
493839.0368
494372.3891
494872.9626
495340.5122
495775.7223
496177.6476
496546.0443
496880.1871
497180.0051
497445.5801
497677.4079
497876.4881
498044.0255
498181.782
498291.5965
498375.4675
498435.6523
498474.3682
498493.8059
498496.1268
498483.4212
498457.6415
498420.5944
498373.9771
498319.4407
498258.2873
498190.1908
498113.5551
498039.2348
463552.6302
465639.9675
465637.351
466034.1593
466708.1367
467542.4458
468502.66
469585.8463
470775.0747
472034.8419
473325.4832
474604.9903
475834.5211
476984.833
478042.2575
479002.2826
479869.7869
480655.6379
481372.9568
482030.5902
482637.8007
483200.8971
483723.6825
484209.8062
484659.9076
485075.5928
485456.6469
485803.6811
486116.5131
486395.8032
486641.9417
486856.0064
487039.1369
487192.7433
487318.6647
487418.7332
487494.9584
487549.459
487584.3031
487601.5053
487603.0786
487590.9168
487566.7803
487532.2939
487488.9817
487438.3276
487381.4925
487318.1181
487246.664
487177.2651
453084.3816
455144.1952
455129.8801
455502.1426
456150.5393
456949.0035
457876.6594
458922.6738
460073.8588
461304.5233
462576.4933
463849.5021
465084.5003
466250.759
467328.0626
468308.6484
469194.0328
469995.3253
470721.8332
471382.5389
471988.3738
472544.6654
473057.1505
473529.3128
473963.2417
474360.8742
474722.9491
475050.6591
475344.4382
475605.4415
475834.4484
476032.8851
476202.0371
476343.5674
476459.2775
476550.9743
476620.6803
476670.3755
476701.9942
476717.402
476718.4542
476706.8803
476684.2775
476652.1131
476611.7616
476564.5623
476511.5554
476452.3571
476385.4802
476320.4271
442642.1455
444666.4113
444641.9988
444991.8722
445618.108
446383.1466
447280.9564
448293.35
449410.6837
450610.6782
451860.4591
453122.3224
454356.4858
455529.7905
456619.3854
457613.5518
458513.1971
459325.4415
460057.6906
460720.4266
461323.3269
461872.2741
462374.4345
462833.1338
463251.9676
463632.8232
463977.6702
464287.8511
464564.6063
464809.3482
465023.2307
465207.9223
465364.8506
465495.8803
465602.7651
465687.2927
465751.4325
465797.0628
465825.9949
465839.9636
465840.6809
465829.7309
465808.5678
465778.5225
465740.8396
465696.7338
465647.1415
465591.66
465528.8524
465467.6616
432220.4922
434203.2084
434167.9972
434505.0313
435108.9274
435844.7064
436707.9916
437691.3092
438777.0708
439947.5415
441173.6314
442419.7907
443647.0088
444821.0432
445916.1068
446918.7688
447828.4119
448647.3267
449382.2784
450045.1724
450643.7587
451185.3207
451677.0269
452122.9102
452527.4372
452892.7959
453221.8855
453516.1743
453777.6712
454007.8635
454208.3884
454380.9979
454527.2689
454649.1404
454748.3776
454826.7402
454886.1306
454928.3264
454955.0143
454967.8431
454968.3844
454958.0893
454938.2864
454910.188
454874.927
454833.6101
454787.0844
454734.9335
454675.7685
454618.0344
421816.0368
423749.8059
423708.3005
424034.8625
424614.0224
425326.3396
426157.1084
427111.135
428168.489
429310.0665
430511.1112
431738.729
432954.657
434123.5467
435218.629
436226.2518
437140.3575
437961.6801
438697.5759
439358.2714
439951.0472
440484.882
440966.0266
441399.7822
441790.8111
442141.9184
442456.5021
442736.4436
442984.1745
443201.3496
443390.0414
443551.9974
443688.9299
443802.8127
443895.3911
443968.4519
444023.7915
444063.0916
444087.9261
444099.8681
444100.364
444090.7474
444072.2361
444045.9393
444012.8922
443974.1082
443930.3566
443881.2126
443825.3331
443770.7161
411419.8654
413307.1441
413267.3747
413580.5689
414134.9575
414826.8713
415630.2286
416551.3442
417580.5395
418695.6366
419871.1939
421077.6152
422277.3258
423436.412
424528.3282
425535.7963
426449.7829
427269.8206
428004.4462
428660.9962
429247.0228
429772.3568
430242.7796
430664.8644
431042.9705
431380.9711
431682.2463
431949.1887
432184.5089
432390.1018
432568.2398
432720.7176
432849.4732
432956.3863
433043.1734
433111.6644
433163.5423
433200.4039
433223.7319
433235.0024
433235.5612
433226.6412
433209.3633
433184.7456
433153.738
433117.272
433076.0502
433029.6423
432976.75
432924.9671
401038.8595
402879.4652
402839.981
403139.0403
403673.7856
404341.4975
405120.3881
406011.6312
407009.9447
408096.9501
409247.4416
410431.0734
411613.0813
412760.3739
413845.1835
414847.3229
415756.7524
416573.4831
417303.8637
417953.9269
418532.7378
419048.9117
419508.679
419919.2858
420285.0811
420610.8547
420899.7506
421154.9209
421379.0327
421574.2467
421742.9641
421887.0347
422008.5821
422109.3925
422191.1642
422255.7044
422304.619
422339.4212
422361.5228
422372.3055
422373.0229
422364.818
422348.7262
422325.6861
422296.5728
422262.2461
422223.3502
422179.4531
422129.3002
422080.1162
390680.0076
392465.6429
392423.9373
392707.0523
393225.8769
393867.6799
394625.3364
395490.1044
396458.4827
397515.7075
398640.0526
399800.1438
400963.2707
402095.6417
403168.4363
404161.1056
405062.4077
405873.3665
406596.842
407238.6496
407809.0852
408315.276
408764.6253
409163.9886
409518.175
409832.3374
410109.7611
410354.128
410567.9635
410753.8727
410914.1778
411050.822
411165.9718
411261.4102
411338.8114
411399.9343
411446.3128
411479.3707
411500.486
411510.9397
411511.8992
411504.4271
411489.4837
411467.9378
411440.5985
411408.2629
411371.5242
411329.9513
411282.3327
411235.5534
380336.1309
382062.6109
382018.2674
382289.4039
382792.1647
383409.3824
384142.8395
384983.4674
385924.4333
386953.6056
388050.5056
389185.7478
390326.6306
391440.1627
392497.2809
393476.3633
394367.9541
395169.7837
395883.6814
396516.4798
397077.0917
397572.5688
398011.4263
398399.5881
398742.7647
399045.9879
399312.8395
399547.1774
399751.6142
399929.0995
400081.8286
400211.8502
400321.319
400411.9877
400485.5767
400543.7431
400587.9546
400619.558
400639.8916
400650.1494
400651.4215
400644.6985
400630.8737
400610.7538
400585.0902
400554.624
400519.9035
400480.5017
400435.2491
400390.7151
370008.7982
371670.3921
371622.7848
371887.4613
372371.0045
372966.7504
373672.3895
374490.1845
375404.3109
376405.1911
377474.3018
378583.3058
379700.2592
380792.4707
381830.3447
382793.8249
383673.2008
384463.0515
385165.1179
385787.6398
386337.4757
386821.9743
387249.9147
387626.922
387959.5027
388252.2271
388509.2424
388734.3167
388930.2212
389099.9801
389245.7965
389369.9005
389474.3111
389560.7469
389630.99
389686.5857
389728.9427
389759.3476
389779.0739
389789.2481
389790.8927
389784.9338
389772.2045
389753.456
389729.3879
389700.6918
389667.8767
389630.521
389587.4977
389545.0796
359692.3145
361284.5625
361241.0685
361497.8243
361959.0417
362537.1031
363216.7465
364007.1805
364897.301
365870.4471
366911.1049
367992.6574
369083.7228
370151.3648
371168.0121
372114.5938
372978.097
373753.1998
374442.4242
375052.8892
375590.5305
376063.9069
376480.7243
376846.8128
377168.9557
377451.5747
377699.3429
377915.7328
378103.7828
378266.4689
378406.0048
378524.7573
378624.6347
378707.3334
378774.6169
378827.9639
378868.7159
378898.1289
378917.4
378927.5911
378929.6634
378924.4849
378912.8347
378895.4147
378872.8785
378845.8731
378814.8724
378779.4628
378738.5589
378698.1534
349387.9093
350912.2149
350876.0934
351122.1474
351561.8089
352121.0249
352776.4793
353536.8419
354399.3546
355346.6672
356359.3664
357411.8764
358474.4306
359516.2896
360510.9385
361437.4342
362282.4164
363040.5047
363715.7534
364312.7038
364837.2512
365298.9044
365704.1642
366059.6044
366371.5368
366644.5299
366883.4293
367091.5782
367272.3597
367428.5358
367562.367
367676.2286
367772.0035
367851.3601
367916.016
367967.3897
368006.7518
368035.3481
368054.2931
368064.5873
368067.1355
368062.7531
368052.171
368036.0463
368014.9916
367989.6141
367960.3561
367926.8134
367887.9429
367849.4687
352325.9238
352985.268
353567.1787
354078.4448
354527.5542
354920.8658
355265.6968
355567.5112
355831.2757
356061.6724
356262.0606
356435.9981
356586.0816
356714.6786
356824.0633
356916.0653
356992.4261
357054.7424
357104.3809
357142.5573
357170.4834
357189.2089
357199.6785
357202.7448
357199.1746
357189.6543
357174.8007
357155.1894
357131.3917
357103.8218
357072.0857
357035.1825
356998.5772
)
;

boundaryField
{
    front_top
    {
        type            wedge;
    }
    front_middle
    {
        type            wedge;
    }
    front_bottom
    {
        type            wedge;
    }
    back_top
    {
        type            wedge;
    }
    back_middle
    {
        type            wedge;
    }
    back_bottom
    {
        type            wedge;
    }
    axis_top
    {
        type            symmetryPlane;
    }
    axis_middle
    {
        type            symmetryPlane;
    }
    axis_bottom
    {
        type            symmetryPlane;
    }
    wall_top
    {
        type            fixedFluxPressure;
        gradient        nonuniform 0();
        value           nonuniform 0();
    }
    wall_middle
    {
        type            fixedFluxPressure;
        gradient        nonuniform 0();
        value           nonuniform 0();
    }
    wall_bottom
    {
        type            fixedFluxPressure;
        gradient        uniform 0;
        value           nonuniform List<scalar> 
23
(
596307.0267
585313.103
574345.9808
563401.224
552475.4117
541565.487
530668.9334
519783.5713
508907.5414
498039.2348
487177.2651
476320.4271
465467.6616
454618.0344
443770.7161
432924.9671
422080.1162
411235.5534
400390.7151
389545.0796
378698.1534
367849.4687
356998.5772
)
;
    }
    inlet
    {
        type            zeroGradient;
    }
    outlet
    {
        type            fixedValue;
        value           nonuniform 0();
    }
    procBoundary1to0
    {
        type            processor;
        value           nonuniform List<scalar> 
51
(
339103.7322
340557.7863
340523.6359
340755.3499
341178.7815
341713.1839
342348.0307
343081.8838
343913.0723
344831.7593
345815.3259
346838.4975
347872.5367
348888.2515
349858.3903
350761.8863
351585.7076
351585.7076
341609.5822
342251.1976
342816.6698
343314.0793
343750.2097
344131.5303
344465.4909
344757.16
345012.0031
345234.2251
345427.2715
345594.6898
345739.0085
345862.7593
345968.0159
346056.5561
346130.1936
346190.4032
346238.5015
346275.659
346303.0366
346321.6321
346332.3385
346335.9603
346333.2194
346324.7592
346311.1549
346292.9538
346270.7
346244.7792
346214.8065
346179.8226
346145.041
)
;
    }
    procBoundary1to2
    {
        type            processor;
        value           nonuniform List<scalar> 
51
(
595321.9303
597145.5978
597842.3321
599047.4034
600517.1252
601981.3826
603261.3203
604283.4583
605036.2557
605559.7797
605917.8018
606170.3337
606365.6258
606540.595
606724.9533
606940.1507
607199.355
607511.2056
607884.5243
608320.3859
608818.9969
609378.7844
609994.6846
610661.338
611370.1654
612112.1802
612876.2161
613650.2616
614421.3587
615175.9855
615900.9964
616583.5656
617212.5551
617778.2867
607281.1751
607281.1751
607645.8172
607940.8316
608167.4536
608328.5906
608428.6136
608472.8329
608467.1751
608417.8578
608331.1943
608213.4438
608070.8154
607908.5952
607727.8015
607526.022
607332.2141
)
;
    }
}


// ************************************************************************* //
