/*--------------------------------*- C++ -*----------------------------------*\
  =========                 |
  \\      /  F ield         | OpenFOAM: The Open Source CFD Toolbox
   \\    /   O peration     | Website:  https://openfoam.org
    \\  /    A nd           | Version:  7
     \\/     M anipulation  |
\*---------------------------------------------------------------------------*/
FoamFile
{
    version     2.0;
    format      ascii;
    class       volScalarField;
    location    "0.0006";
    object      rho;
}
// * * * * * * * * * * * * * * * * * * * * * * * * * * * * * * * * * * * * * //

dimensions      [1 -3 0 0 0 0 0];

internalField   nonuniform List<scalar> 
1167
(
936.6789844
936.6056767
936.4485149
936.2162419
935.9139704
935.5460854
935.116791
934.6299327
934.0893585
933.4988153
932.8618149
932.1817929
931.4620687
930.705921
929.9163419
929.0963906
928.2489826
927.377156
926.483429
925.5705644
924.6413305
923.6981326
922.7437438
921.7805391
920.8112889
919.8382673
918.8642248
917.8915333
916.9227348
915.9601728
915.0062293
914.0630818
913.1327998
912.2173446
936.5584859
936.4851692
936.3279914
936.0957022
935.7935554
935.4256801
934.9965566
934.5098944
933.9695526
933.3792372
932.7425574
932.0629537
931.3437201
930.5880663
929.7990542
928.9797462
928.1331757
927.2621702
926.369371
925.4576897
924.5296878
923.5880264
922.6353099
921.6741451
920.7071285
919.7367862
918.7656714
917.7963579
916.8312029
915.8727067
914.9230529
913.9845346
913.0590138
912.1485434
911.2546096
910.3786512
909.5219113
908.6852743
907.8695694
907.0752932
906.3027048
905.5519599
904.8231059
904.1159426
903.4301558
902.7653292
902.1209809
901.4965545
900.8914538
900.3050217
936.4380128
936.3646888
936.2074983
935.9753014
935.673182
935.3054441
934.8763752
934.3899177
933.8498176
933.2598
932.6234709
931.9442688
931.225502
930.4703695
929.6819617
928.8633709
928.0176785
927.1475629
926.2558338
925.3453974
924.418757
923.4787774
922.5278926
921.5689328
920.6043197
919.6368229
918.6687924
917.7029926
916.7415929
915.7872387
914.8419283
913.9080316
912.9872415
912.0816894
911.1926651
910.3216774
909.469803
908.6379484
907.8269422
907.0371721
906.2689291
905.5223627
904.7975391
904.094217
903.4121182
902.7508359
902.1099033
901.4887727
900.8868598
900.3035138
936.31757
936.2442403
936.0870408
935.8549704
935.5528558
935.1852773
934.7562545
934.2700103
933.7301621
933.1404538
932.5044884
931.8257045
931.1074267
930.3528449
929.5650802
928.7473477
927.9024981
927.033349
926.1428449
925.2336971
924.3086081
923.3703772
922.4215028
921.4648657
920.5028467
919.5382946
918.573542
917.6112996
916.6538195
915.7035781
914.7626958
913.8333447
912.9173017
912.0165416
911.1323348
910.2662059
909.4190747
908.5918916
907.7854308
907.0000373
906.236015
905.4935344
904.7726052
904.0730221
903.3945164
902.7366897
902.0990896
901.4811756
900.8823747
900.3020417
936.197162
936.1238286
935.966737
935.7346855
935.4325822
935.0651704
934.6363328
934.1501803
933.6105946
933.0212078
932.3856207
931.7072731
930.989508
930.2355075
929.448518
928.6315997
927.7876539
926.919576
926.0303548
925.1225985
924.1992166
923.2628172
922.3161543
921.3619093
920.402673
919.4411227
918.4797812
917.5211527
916.5676528
915.6215586
914.6851087
913.7602812
912.8489511
911.952898
911.0734436
910.2120433
909.3695433
908.5469358
907.7448799
906.9637491
906.2038388
905.4653415
904.7482119
904.05228
903.3772861
902.7228395
902.0885008
901.473736
900.8779825
900.3006
936.0767934
936.0035308
935.8464982
935.6144523
935.3124811
934.9451288
934.5164867
934.0305088
933.491124
932.9020721
932.2668792
931.5889879
930.8717606
930.1184446
929.3322289
928.5161462
927.6731668
926.8063145
925.9183774
925.0121178
924.0905439
923.1560916
922.2117593
921.2600258
920.3036828
919.345235
918.387389
917.4324406
916.4829631
915.541035
914.60901
913.6886758
912.7820051
911.8905881
911.0158298
910.1590282
909.3210569
908.5029185
907.7051629
906.9281941
906.1723005
905.4376968
904.7242845
904.0319279
903.3603757
902.709244
902.0781055
901.4664319
900.8736701
900.2991845
935.9565927
935.8833387
935.7263096
935.4942755
935.1924668
934.8251588
934.3967222
933.910983
933.3718403
932.7830669
932.1482763
931.4708805
930.754282
930.0016536
929.2162023
928.4010068
927.5590917
926.6935006
925.8069312
924.9023614
923.9825914
923.0502393
922.1082963
921.1591987
920.2058264
919.2505877
918.2962822
917.3450919
916.3996361
915.4619008
914.5342636
913.6183863
912.7163186
911.8294673
910.9593213
910.1070277
909.2734904
908.459725
907.6661761
906.8932796
906.1413183
905.4105296
904.7007625
904.0119149
903.3437433
902.6958699
902.0678783
901.4592455
900.8694271
900.2977917
935.8364482
935.7631967
935.6061758
935.3742032
935.072521
934.7053218
934.2770465
933.7915587
933.2527233
932.6643146
932.0299388
931.353058
930.6370398
929.8851002
929.1004569
928.2862008
927.4454886
926.581152
925.6960301
924.7932363
923.8753632
922.9452668
922.0057432
921.0594462
920.1090586
919.1571676
918.2063859
917.2590461
916.3175713
915.3840815
914.4607523
913.549337
912.6517686
911.7694139
910.9038007
910.055931
909.2267475
908.4172607
907.6278343
906.85893
906.1108565
905.3837827
904.677597
903.9922001
903.3273553
902.6826902
902.0577988
901.4521625
900.8652451
900.296419
935.7163559
935.6431094
935.4861016
935.2542907
934.9526484
934.5856446
934.1574663
933.6722438
933.1337316
932.5457048
931.9117742
931.2354232
930.5200154
929.7688017
928.9850112
928.1718199
927.3322983
926.4692853
925.5857658
924.6847506
923.7688599
922.8411043
921.9040841
920.9606671
920.0133354
919.0648485
918.1176327
917.1741671
916.2366805
915.3074239
914.3883746
913.481395
912.5882508
911.7103377
910.8491701
910.0056456
909.1807756
908.3754479
907.5900679
906.8250837
906.0808305
905.3574095
904.6547486
903.9727504
903.3111846
902.6696835
902.0478508
901.4451715
900.8611173
900.2950641
935.5963202
935.523081
935.3661436
935.1344481
934.8328542
934.4660567
934.0380535
933.5530459
933.0148738
932.4272482
931.7937851
931.1179906
930.4032252
929.6527762
928.8699034
928.0578553
927.2195383
926.3579158
925.4761067
924.5769113
923.6631505
922.7377453
921.803318
920.862833
919.9186167
918.9735798
918.0299616
917.0903851
916.1568859
915.2318445
914.3170431
913.4144529
912.5256766
911.6521847
910.7953471
909.9560946
909.1354635
908.3342228
907.5528196
906.7916901
906.0511964
905.3313724
904.6321853
903.9535391
903.2952093
902.6568324
902.0380209
901.4382632
900.8570383
900.2937252
935.4763453
935.4031261
935.2463382
935.0146796
934.7131901
934.3465637
933.9188096
933.4339851
932.8961585
932.3089549
931.6759836
931.0007743
930.2866856
929.5370423
928.755231
927.9442766
927.1072243
926.2471152
925.367028
924.4697249
923.5581986
922.6351859
921.7035014
920.7659141
919.8249428
918.8833149
917.9433766
917.0076377
916.0781524
915.1572706
914.2466825
913.3484346
912.4639706
911.594837
910.7422631
909.9072142
909.0907529
908.2935324
907.5160426
906.7587084
906.0219185
905.3056409
904.6098813
903.9345446
903.2794119
902.6441229
902.0282987
901.4314303
900.8530037
900.2924009
935.3564992
935.2833655
935.1266042
934.8949899
934.5936994
934.2271715
933.7996809
933.315174
932.7776102
932.1908351
931.5583819
930.8837881
930.1704283
929.4217352
928.6409105
927.8311013
926.9953717
926.1368908
925.2585392
924.3632099
923.4539715
922.5334153
921.6045292
920.6698882
919.7322118
918.7940123
917.8577914
916.92587
916.0004296
915.0836389
914.177275
913.2832751
912.4030693
911.5382335
910.6898604
909.858951
909.0465955
908.253334
907.4796995
906.7261367
905.9929671
905.2801899
904.5878156
903.9157497
903.2637782
902.6315439
902.0186756
901.4246669
900.8490101
900.29109
935.2367955
935.1636757
935.0069458
934.7753834
934.4743022
934.1078857
933.6806741
933.1965037
932.6593363
932.0729679
931.4410417
930.7671137
930.0545552
929.3067494
928.526958
927.7183463
926.8840602
926.0272006
925.150648
924.2574471
923.3504659
922.4324464
921.5063866
920.5747341
919.6403844
918.7056352
917.7731403
916.8450332
915.9236212
915.0108944
914.108737
913.2189187
912.3429224
911.4823225
910.6380908
909.8113027
909.0029513
908.2135917
907.4437583
906.6939168
905.9643195
905.2549999
904.5659717
903.8971405
903.248297
902.6190865
902.009145
901.4179682
900.8450547
900.2897916
935.1171639
935.0440603
934.8873672
934.6559743
934.3550036
933.9888293
933.5617959
933.077981
932.5412315
931.9553492
931.3240014
930.6507409
929.9389747
929.192099
928.4133884
927.6060263
926.7732819
925.9180545
925.0433605
924.1523459
923.2476771
922.3323202
921.4090618
920.4804972
919.5494328
918.6181704
917.6893839
916.7650841
915.8476814
914.9389898
914.0410003
913.1553193
912.2835309
911.4270591
910.586913
909.7641937
908.9597868
908.1742759
907.4081932
906.6620256
905.9359571
905.2300552
904.5443363
903.8787062
903.2329596
902.6067437
901.9997016
901.4113307
900.8411353
900.2885051
934.9976081
934.9245232
934.7678726
934.5366793
934.2358089
933.8698989
933.4430553
932.9596131
932.4233043
931.8379342
931.2071941
930.5346349
929.8236999
929.0777975
928.300215
927.4942539
926.6630034
925.8094638
924.9367635
924.0479061
923.1456024
922.2329554
921.3125398
920.3871239
919.4593338
918.5316319
917.6064879
916.6860371
915.7725681
914.8678826
913.9740227
913.0924346
912.2248037
911.3724073
910.5362934
909.7175891
908.9170746
908.1353625
907.3729856
906.6304451
905.9078649
905.2053431
904.522899
903.8604383
903.2177589
902.5945101
901.9903413
901.4047514
900.8372503
900.2872299
934.8781319
934.8050685
934.6485837
934.4174814
934.116723
933.7510921
933.3245833
932.8414073
932.3055627
931.720732
931.0906304
930.4188074
929.708743
928.9638573
928.1875063
927.3829501
926.5532349
925.7014363
924.830805
923.9441304
923.0442914
922.1343419
921.216805
920.2945633
919.3700639
918.4459278
917.5244225
916.6078268
915.6982477
914.7975885
913.9077662
913.0302283
912.1667071
911.3183362
910.4862037
909.6714633
908.8747921
908.0968316
907.3381475
906.5991612
905.8800307
905.1808537
904.5016517
903.8423299
903.2026896
902.5823814
901.9810609
901.3982281
900.8333984
900.2859655
934.7587392
934.6857768
934.5294008
934.2983852
933.9978587
933.6324147
933.2062596
932.7234455
932.1880142
931.6037516
930.9743206
930.3032698
929.5941162
928.8503304
928.075277
927.2721141
926.4439848
925.594048
924.7254644
923.8410196
922.9437375
922.0364689
921.1218955
920.2027987
919.281602
918.3610335
917.4431602
916.5304028
915.6246892
914.7280365
913.8421999
912.9686742
912.1092124
911.2648195
910.4366585
909.6257952
908.8329205
908.0586672
907.3036334
906.568162
905.8524448
905.1565788
904.4805876
903.8243758
903.1877474
902.5703543
901.971858
901.3917592
900.8295785
900.2847117
934.6395615
934.5666299
934.4103147
934.1793955
933.8791312
933.5138728
933.0880907
932.6057142
932.0707383
931.487002
930.8582744
930.1880329
929.4798909
928.7372646
927.9634751
927.1617543
926.3352601
925.4872745
924.6207438
923.7385722
922.8438841
921.9393283
921.0277782
920.1118135
919.1940062
918.2769264
917.3626871
916.4537387
915.5518653
914.659186
913.7772977
912.9078006
912.0522956
911.2118348
910.3876083
909.5805669
908.7914445
908.0208561
907.2694324
906.5374385
905.8250998
905.1325123
904.4597019
903.8065719
903.1729292
902.5584264
901.9627306
901.3853432
900.8257898
900.2834681
934.5204788
934.4475776
934.2913299
934.0605587
933.7605282
933.3955269
932.9700827
932.4881665
931.9537242
931.3706188
930.7425935
930.073224
929.3660753
928.6245915
927.8521105
927.0518786
926.2271442
925.381078
924.5166442
923.6368794
922.7447266
921.8429131
920.9344086
920.0215916
919.1071875
918.1935859
917.2830367
916.3778107
915.4797543
914.5910133
913.7130366
912.847527
911.9959362
911.1593637
910.3390269
909.5357639
908.7503516
907.9833982
907.2355354
906.5069831
905.7979894
905.1086493
904.4389905
903.7889151
903.1582325
902.5465958
901.9536774
901.3789794
900.822032
900.2822346
934.401492
934.3286243
934.1724511
933.9419214
933.6420551
933.2774026
932.8522419
932.3708096
931.8369278
931.254483
930.6272154
929.9587354
929.2526186
928.5123199
927.7411917
926.9425013
926.1195942
925.2754618
924.4131666
923.5358491
922.6462634
921.7472885
920.8417724
919.9321168
919.02112
918.1109925
917.2041207
916.3025977
915.4083994
914.5234975
913.6493963
912.7878347
911.9401168
911.1073902
910.2909002
909.491374
908.7096312
907.9463011
907.2019353
906.4767902
905.7711092
905.0849862
904.4184506
903.7714032
903.1436556
902.5348611
901.9446974
901.3726669
900.8183044
900.2810111
934.2826053
934.2097745
934.0537316
933.8234052
933.5237174
933.1594314
932.7346374
932.2536496
931.7203562
931.1386026
930.5121268
929.8445738
929.1395294
928.4004585
927.630728
926.8337225
926.0125829
925.1704276
924.3103768
923.4354762
922.5484886
921.6523983
920.7498591
919.8434361
918.9357877
918.0291289
917.1259207
916.2280807
915.3377139
914.4566201
913.5863713
912.7287077
911.8848235
911.0559429
910.2432154
909.4473865
908.6692745
907.9095303
907.1686263
906.446855
905.7444553
905.06152
904.3980799
903.7540345
903.129197
902.5232214
901.9357899
901.3664053
900.8146069
900.2797974
934.1638233
934.0910423
933.9352034
933.7050153
933.4055643
933.0416194
932.6172785
932.1366955
931.6040162
931.0229852
930.3973357
929.7307474
929.0268155
928.2890146
927.5207989
926.7254455
925.9061147
925.065977
924.2082435
923.335757
922.4513993
921.5582087
920.6586596
919.7554983
918.851176
917.9480334
917.0484198
916.1542427
915.2676809
914.3903649
913.5239809
912.6701317
911.8300428
911.0049759
910.1959632
909.403793
908.6292746
907.87308
907.1356038
906.4171739
905.718025
905.0382486
904.3778769
903.7368077
903.1148561
902.511676
901.9269545
901.3601942
900.8109392
900.2785936
934.0452081
933.9725378
933.8167953
933.5867568
933.2876432
932.923972
932.5001053
932.0200715
931.4879149
930.9076382
930.2828499
929.6172638
928.9144841
928.1780606
927.4113703
926.6176753
925.8001939
924.9621667
924.1067273
923.2366846
922.3550704
921.4647134
920.5681655
919.6682698
918.767272
917.8676581
916.9716031
916.0810988
915.1982854
914.3247174
913.4621645
912.6120941
911.7757634
910.9544716
910.1491358
909.3605874
908.5896476
907.836945
907.1028636
906.3877439
905.6918161
905.0151704
904.3578404
903.719722
903.1006321
902.5002244
901.9181907
901.3540336
900.8073013
900.2773995
924.8589871
924.0058259
923.1382562
922.2594094
921.371905
920.4784344
919.5817383
918.6840628
917.7879682
916.8954568
916.0086453
915.129514
914.2596647
913.4009102
912.554584
911.7219763
910.9044219
910.1027266
909.3177639
908.5503813
907.8011218
907.0704031
906.3585629
905.665827
904.9922843
904.3379695
903.7027769
903.0865248
902.4888666
901.9094986
901.3479232
900.8036931
900.2762152
)
;

boundaryField
{
    front_top
    {
        type            wedge;
    }
    front_middle
    {
        type            wedge;
    }
    front_bottom
    {
        type            wedge;
    }
    back_top
    {
        type            wedge;
    }
    back_middle
    {
        type            wedge;
    }
    back_bottom
    {
        type            wedge;
    }
    axis_top
    {
        type            symmetryPlane;
    }
    axis_middle
    {
        type            symmetryPlane;
    }
    axis_bottom
    {
        type            symmetryPlane;
    }
    wall_top
    {
        type            calculated;
        value           nonuniform 0();
    }
    wall_middle
    {
        type            calculated;
        value           nonuniform 0();
    }
    wall_bottom
    {
        type            calculated;
        value           uniform 900.0184441;
    }
    inlet
    {
        type            calculated;
        value           nonuniform 0();
    }
    outlet
    {
        type            calculated;
        value           nonuniform 0();
    }
    procBoundary1to0
    {
        type            processor;
        value           nonuniform List<scalar> 
51
(
933.9267736
933.8541506
933.6985121
933.4686347
933.1698735
932.8064947
932.3831241
931.9036656
931.3721853
930.7926113
930.1686948
929.5041654
928.8026318
928.0675837
927.3024112
926.5104154
925.6948229
925.6948229
924.7563915
923.9055394
923.0405252
922.1644092
921.2797745
920.3894141
919.4958944
918.601574
917.7089504
916.8199677
915.9368282
915.0613542
914.1952251
913.3402071
912.4975916
911.6687231
910.8548194
910.0567292
909.2753174
908.5114574
907.7656078
907.0382201
906.3296292
905.6400566
904.9695896
904.318264
903.6859722
903.0725339
902.4776023
901.9008779
901.3418632
900.8001146
900.2750406
)
;
    }
    procBoundary1to2
    {
        type            processor;
        value           nonuniform List<scalar> 
51
(
936.7995827
936.7262062
936.5690636
936.336811
936.0344199
935.6665312
935.2370722
934.7500249
934.2093419
933.6185397
932.9812124
932.300814
931.5806406
930.8239222
930.0338124
929.2132645
928.3651922
927.4925071
926.5979468
925.6840366
924.7536831
923.809174
922.853219
921.8882287
920.9168626
919.9413886
918.9645746
917.9886725
917.0163732
916.0498522
915.0916884
914.1439366
913.2088773
912.2883781
911.3184074
911.3184074
910.4373598
909.5756203
908.7340566
907.9135026
907.114572
906.3374942
905.5824362
904.8494197
904.1382953
903.4487086
902.7802333
902.1323708
901.504555
900.8961767
900.3065719
)
;
    }
}


// ************************************************************************* //
