/*--------------------------------*- C++ -*----------------------------------*\
  =========                 |
  \\      /  F ield         | OpenFOAM: The Open Source CFD Toolbox
   \\    /   O peration     | Website:  https://openfoam.org
    \\  /    A nd           | Version:  7
     \\/     M anipulation  |
\*---------------------------------------------------------------------------*/
FoamFile
{
    version     2.0;
    format      ascii;
    class       volScalarField;
    location    "0.0006";
    object      T;
}
// * * * * * * * * * * * * * * * * * * * * * * * * * * * * * * * * * * * * * //

dimensions      [0 0 0 1 0 0 0];

internalField   nonuniform List<scalar> 
1167
(
455.2238013
455.3351058
455.5737863
455.9266846
456.3861956
456.9458526
457.5994873
458.3414945
459.1662751
460.0683875
461.0427488
462.0843863
463.1884955
464.3503209
465.5655311
466.8296727
468.1384925
469.4875243
470.8730799
472.2910686
473.737361
475.2083649
476.6998844
478.2083146
479.7293996
481.2596296
482.794713
484.3309208
485.8642219
487.3908673
488.9070147
490.4091171
491.8937711
493.3577211
455.4067691
455.5181159
455.7568822
456.1098959
456.5693355
457.1291217
457.7826643
458.5245631
459.3492006
460.2511963
461.2253164
462.2665788
463.3702161
464.531577
465.7462211
467.0096887
468.3175426
469.6656386
471.0500978
472.4665954
473.9113207
475.3802807
476.869539
478.3751253
479.8930518
481.4194093
482.9502117
484.4814075
486.0092532
487.5297473
489.0393584
490.5343527
492.0116545
493.4678609
494.9004517
496.3069667
497.6852454
499.0336932
500.3507984
501.6355803
502.8874428
504.1059586
505.290879
506.4423626
507.5607609
508.6465992
509.7005184
510.7232904
511.7157608
512.6788843
455.5897454
455.701132
455.939979
456.2929432
456.7524593
457.3121802
457.9658075
458.7075848
459.5320647
460.4338362
461.4076686
462.4485808
463.5517822
464.712636
465.9266562
467.189335
468.496158
469.8432108
471.2263512
472.6412591
474.0842129
475.5508986
477.0376425
478.5401213
480.054617
481.5768339
483.1031013
484.6290628
486.1512678
487.6654805
489.1684611
490.6563497
492.1263394
493.5748996
494.999824
496.3985406
497.7691562
499.110043
500.419691
501.697298
502.9422183
504.1540371
505.3324771
506.4777661
507.5901991
508.6702877
509.7186499
510.736045
511.7233005
512.6813623
455.7727229
455.8841466
456.1230688
456.4759314
456.9355583
457.4951803
458.1489053
458.8905477
459.7148544
460.6163839
461.589908
462.6304444
463.7331751
464.8934759
466.1068113
467.3684822
468.674328
470.020217
471.4017959
472.8150441
474.2559279
475.7202311
477.2041771
478.7033586
480.2141189
481.7320323
483.2534526
484.7741028
486.2903985
487.798368
489.2945747
490.7754707
492.2381138
493.6792219
495.09662
496.4877108
497.8508543
499.1843533
500.4867867
501.7574241
502.9956007
504.2008696
505.3730478
506.5123066
507.6189273
508.6934095
509.73635
510.7484971
511.7306616
512.6837816
455.9556945
456.0671525
456.3059721
456.6588966
457.1186243
457.6781364
458.3317468
459.0734394
459.8975564
460.7988248
461.7720182
462.8121502
463.9143735
465.0740732
466.2865197
467.5472493
468.8520219
470.1965838
471.5765088
472.9879347
474.4265025
475.8882904
477.3691196
478.8648902
480.3716128
481.885127
483.4014829
484.9167257
486.4270087
487.9286726
489.4180906
490.8920214
492.347365
493.78115
495.1911198
496.5747878
497.9306336
499.2568943
500.5523361
501.8161842
503.0477899
504.246673
505.4127411
506.5461107
507.6470501
508.7160484
509.7536823
510.7606913
511.7378705
512.6861509
456.1386534
456.2500325
456.4888235
456.8418302
457.301475
457.8610398
458.51452
459.2561361
460.080157
460.9811435
461.9539812
462.993678
464.0953543
465.2542936
466.4658518
467.7256058
469.0292071
470.3722003
471.7504677
473.1599054
474.5959964
476.0550848
477.5326062
479.0247741
480.5272797
482.0362302
483.5473823
485.0571062
486.5613025
488.0566236
489.5392577
491.0062646
492.4543872
493.8809559
495.2835815
496.66003
498.0087384
499.327928
500.6165431
501.8737617
503.0989484
504.2915885
505.4516786
506.5792809
507.6746521
508.7382717
509.7706985
510.7726637
511.7449483
512.6884771
456.321404
456.4327986
456.6716456
457.0247248
457.4842401
458.0438811
458.6972153
459.4386571
460.2625188
461.1633091
462.1357783
463.1749789
464.2759678
465.4341405
466.6448237
467.9035213
469.2057985
470.5471657
471.9236432
473.330789
474.7644064
476.2205529
477.6946702
479.1830355
480.6811968
482.1854103
483.6912808
485.195356
486.6934597
488.1823892
489.6582913
491.1184257
492.5594112
493.9788707
495.374281
496.7436506
498.0853696
499.3976393
500.6795754
501.9303065
503.1492082
504.335731
505.4899583
506.6118998
507.7018012
508.7601338
509.7874397
510.7844434
511.7519124
512.6907659
456.504116
456.6155353
456.8544312
457.2075075
457.6669481
458.2265667
458.8798222
459.6210697
460.4446721
461.345134
462.3172146
463.3558883
464.4562631
465.6136667
466.8234066
468.0809657
469.3817022
470.7214517
472.0960129
473.5007301
474.9317258
476.3846831
477.8553448
479.3396441
480.833434
482.3326859
483.8332954
485.3315694
486.8236386
488.3060862
489.7753772
491.228625
492.6626329
494.0750885
495.4634058
496.8258274
498.1606821
499.4661802
500.7415701
501.9859407
503.1986276
504.3791933
505.5276598
506.6440342
507.7285524
508.7816787
509.8039396
510.7960537
511.7587764
512.6930218
456.6867955
456.7982359
457.0371732
457.3900937
457.8495913
458.4090553
459.06233
459.8033619
460.6266803
461.5267866
462.4984318
463.536555
464.6362688
465.7928449
467.0015713
468.2577969
469.5570096
470.8950323
472.2674344
473.6697153
475.0979525
476.5475837
478.0146541
479.4947579
480.9840595
482.4782553
483.9735318
485.4659607
486.9519783
488.4279572
489.890676
491.3370734
492.7642184
494.1697533
495.5511129
496.9067084
498.2347597
499.5336757
500.8026398
502.0407641
503.2473429
504.4220509
505.5648472
506.6757379
507.75495
508.8029415
509.8202247
510.8075135
511.7655516
512.6952485
456.8694359
456.9808937
457.219785
457.5726203
458.0321619
458.5914545
459.244629
459.9855219
460.8085301
461.7082511
462.6794258
463.7169569
464.8159595
465.9716474
467.1792589
468.4340276
469.7316933
471.0678831
472.4379553
473.837733
475.2629783
476.7092643
478.1725991
479.6484208
481.1331353
482.6221975
484.112085
485.5986399
487.0786011
488.5481342
490.0043262
491.4439415
492.8643088
494.2629506
495.6375335
496.986417
498.3077815
499.6002289
500.8628767
502.0948581
503.2954258
504.4643647
505.6015726
506.7070545
507.7810295
508.8239506
509.8363168
510.8188378
511.7722467
512.6974489
457.0520306
457.1634866
457.4022114
457.7550808
458.2145808
458.7737555
459.4267166
460.1675188
460.990208
461.8895113
462.8601776
463.8970718
464.9953096
466.1500453
467.356318
468.6097047
469.9057282
471.2398923
472.6076138
474.0047723
475.4268587
476.86973
478.3290898
479.8006786
481.2805973
482.7645847
484.2489481
485.7297044
487.2035622
488.666732
490.116447
491.5493504
492.9630239
494.354869
495.7227778
497.0650556
498.3798413
499.6659248
500.9223563
502.1482891
503.3429339
504.5061844
505.6378777
506.7380189
507.8068196
508.8447287
509.852233
510.8300387
511.778869
512.6996253
457.2344761
457.3458303
457.5845758
457.9374681
458.3967822
458.9559495
459.608675
460.3491802
461.1716767
462.0705515
463.0406687
464.0768783
465.1742703
466.3278291
467.5328774
468.7848009
470.0790902
471.4110478
472.7763945
474.1708041
475.5896444
477.0289967
478.4842901
479.9515651
481.4266043
482.9054815
484.3842562
485.8592406
487.32694
488.7838505
490.2270663
491.6534031
493.060465
494.445606
495.8069379
497.1427095
498.4510166
499.7308322
500.9811391
502.2010598
503.3899153
504.5475506
505.6737968
506.7686593
507.8323434
508.8652942
509.8679872
510.8411259
511.7854241
512.7017797
457.4167515
457.5281131
457.7668717
458.1197751
458.5788875
459.1380275
459.7904934
460.5306727
461.3527712
462.2512505
463.2208039
464.2562509
465.352684
466.5051617
467.7089118
468.9592891
470.2516554
471.5814144
472.9442849
474.335701
475.7513397
477.187044
478.6382226
480.1011129
481.5712178
483.0449454
484.5181123
485.9873249
487.4488868
488.8995762
490.3363163
491.756188
493.1567122
494.5352441
495.8900908
497.2193825
498.5213715
499.795009
501.0392765
502.2532642
503.4364066
504.5884949
505.7093567
506.7989982
507.857619
508.8856615
509.8835904
510.8521072
511.7919165
512.7039134
457.5989636
457.7103291
457.9490927
458.3018279
458.7608888
459.3198019
459.9721616
460.7119854
461.5336526
462.4316139
463.4005239
464.4352045
465.5306913
466.6820207
467.8843977
469.1331466
470.4234349
471.750976
473.1112748
474.4996039
475.9119512
477.3438063
478.7909047
480.2492503
481.7144806
483.1829963
484.6505781
486.1140248
487.5694749
489.0139842
490.4443051
491.8577783
493.2517629
494.6238549
495.9723024
497.2951954
498.5909598
499.8585025
501.0968101
502.3049398
503.482438
504.6290429
505.7445788
506.8290533
507.8826609
508.905842
509.8990512
510.8629884
511.7983499
512.7060278
457.781107
457.8924723
458.1312323
458.4837531
458.9427783
459.5014301
460.1536657
460.8931074
461.7143079
462.6117106
463.5799311
464.6137925
465.7082721
466.8583849
468.0593141
469.3061984
470.5944803
471.9197145
473.2772285
474.6625123
476.0714823
477.4994102
478.9423595
480.3960597
481.8564286
483.3196108
484.7817071
486.2393173
487.6887703
489.1271412
490.5510994
491.9582409
493.3457626
494.7114957
496.0536266
497.3702044
498.6598255
499.9213518
501.15377
502.3561154
503.5280338
504.6692149
505.7794799
506.8588384
507.9074803
508.9258445
509.9143763
510.8737744
511.8047269
512.7081235
457.9631756
458.0745367
458.3131048
458.6655768
459.1245479
459.6829158
460.3348053
461.0740273
461.8947244
462.791526
463.759009
464.7919965
465.885407
467.034235
468.2335549
469.478566
470.7647751
472.0876171
473.442226
474.8244216
476.2298552
477.6538708
479.0926106
480.5416208
481.9970978
483.4549337
484.9115455
486.3633047
487.8068259
489.2390219
490.6567596
492.0576334
493.438765
494.7982156
496.1341085
497.4444504
498.728005
499.9835886
501.2101366
502.4068142
503.5732137
504.7090273
505.8140737
506.8883646
507.9320861
508.9456761
509.9295709
510.8844686
511.8110498
512.7102015
458.1451635
458.256399
458.4948621
458.8472916
459.3060256
459.8642499
460.5157642
461.2546194
462.0748905
462.9710465
463.9377418
464.9697989
466.0620771
467.2094904
468.4070966
469.6502505
470.934306
472.2545656
473.606299
474.9853294
476.3870787
477.8072044
479.2415975
480.6859592
482.1365209
483.5890029
485.0401364
486.4860666
487.92369
489.3497382
490.7613341
492.1559977
493.5308156
494.8840567
496.2137245
497.5179673
498.7955281
500.0452387
501.265983
502.4570549
503.6179933
504.748493
505.8483706
506.9176405
507.9564851
508.965342
509.944639
510.895074
511.8173201
512.7122622
458.3268701
458.438087
458.676518
459.0288902
459.4873406
460.0454231
460.6965322
461.4349043
462.2546842
463.1502578
464.116114
465.1471825
466.2381718
467.3840764
468.5800192
469.8212381
471.1030613
472.4205966
473.7694434
475.1452378
476.5432409
477.9594227
479.3893711
480.8291001
482.2746057
483.7218535
485.1675013
486.6076442
488.0394058
489.4593545
490.8648645
492.2532872
493.6219525
494.9690543
496.2925535
497.5907833
498.8624194
500.1063232
501.3213273
502.5068523
503.6623847
504.7876221
505.8823789
506.9466725
507.9806825
508.9848463
509.9595837
510.9055926
511.8235391
512.7143059
458.5084781
458.6196769
458.8580656
459.2103017
459.6685114
460.2263427
460.8770996
461.6149534
462.4341217
463.3289513
464.293969
465.3239512
466.4136779
467.5580984
468.752307
469.9915162
471.2709111
472.5857683
473.9316571
475.3040038
476.6983484
478.1105362
479.5360005
480.9710683
482.4114914
483.8535174
485.293586
486.7280745
488.1540073
489.567908
490.9673868
492.3496306
493.7122082
495.0532381
496.3706376
497.6629219
498.9286991
500.1668424
501.3761836
502.5562185
503.7063978
504.8264223
505.9161048
506.9754658
508.0046824
509.004192
509.9744072
510.9160261
511.8297077
512.7163332
458.6899861
458.8011621
459.0394978
459.3914546
459.8495299
460.4069691
461.0574569
461.7947557
462.6132702
463.5073095
464.4714026
465.5002702
466.5886733
467.7315424
468.9239462
470.1610623
471.4379212
472.7500752
474.0929378
475.46177
476.8524029
478.2604423
479.6815078
481.1118884
482.5472182
483.9840245
485.4185298
486.8473905
488.2674248
489.6754317
491.0689329
492.4450577
493.8016103
495.136633
496.447999
497.7344025
498.9943838
500.2267836
501.4305636
502.6051626
503.7500401
504.8648997
505.9495531
507.0040241
508.0284875
509.0233814
509.9891112
510.9263754
511.8358266
512.718344
458.8713875
458.9825355
459.2207329
459.5724686
460.0303874
460.5874072
461.2374981
461.9743013
462.7921189
463.6853199
464.6484349
465.6761287
466.7631446
467.9043944
469.0949221
470.3297204
471.6041335
472.913514
474.2531826
475.6185437
477.0054131
478.4092276
479.8259088
481.2514863
482.681811
484.113402
485.5423614
486.9656219
488.3797959
489.7819544
491.1695117
492.5395934
493.8901806
495.2191933
496.5246582
497.8052422
499.0594877
500.2862023
501.4844766
502.6536922
503.7933173
504.9030589
505.9827272
507.03235
508.0520999
509.0424161
510.0036968
510.9366415
511.8418962
512.7203386
459.0526755
459.1637757
459.401722
459.7533357
460.2110084
460.7676474
461.4172084
462.1535766
462.9706568
463.8629705
464.8250531
465.8515141
466.9370792
468.076643
469.2651112
470.4976397
471.7695404
473.0760817
474.4124391
475.7743305
477.1573829
478.556945
479.9692168
481.3899412
482.8152919
484.2415886
485.6651067
487.082795
488.4911468
489.8875015
491.2690911
492.6332602
493.9779404
495.300992
496.6006301
497.8754541
499.124022
500.345108
501.5379299
502.7018131
503.8362341
504.9409033
506.0156299
507.0604455
508.0755211
509.061297
510.0181648
510.9468248
511.8479168
512.7223172
459.2337548
459.3447142
459.5825737
459.9340479
460.3913206
460.9476813
461.5966797
462.3323908
463.1488729
464.0402496
465.0012453
466.0264142
467.1104657
468.2481755
469.4345655
470.6648122
471.9341346
473.2376894
474.5707685
475.9291401
477.308194
478.7036033
480.1114447
481.5273055
482.9476808
484.3686589
485.7867892
487.1988858
488.6015011
489.9920957
491.3677679
492.7260781
494.0649077
495.382057
496.6759268
497.9450479
499.1879605
500.4035088
501.5909299
502.74953
503.878794
504.9784355
506.0482629
507.0883119
508.0987521
509.0800249
510.0325156
510.9569256
511.8538887
512.7242796
473.3983512
474.7281736
476.0829766
477.4579908
478.8492137
480.2525012
481.6635981
483.0789973
484.4946679
485.90743
487.3138989
488.7108796
490.0957571
491.4655608
492.8180642
494.1510968
495.4624015
496.7505589
498.0140328
499.2513222
500.4614104
501.6434812
502.7968465
503.9209995
505.0156573
506.0806275
507.1159501
508.1217933
509.0986
510.0467495
510.9669442
511.8598119
512.7262261
)
;

boundaryField
{
    front_top
    {
        type            wedge;
    }
    front_middle
    {
        type            wedge;
    }
    front_bottom
    {
        type            wedge;
    }
    back_top
    {
        type            wedge;
    }
    back_middle
    {
        type            wedge;
    }
    back_bottom
    {
        type            wedge;
    }
    axis_top
    {
        type            symmetryPlane;
    }
    axis_middle
    {
        type            symmetryPlane;
    }
    axis_bottom
    {
        type            symmetryPlane;
    }
    wall_top
    {
        type            convectiveRadiativeHeatFlux;
        mode            convectiveRadiative;
        kappaMethod     fluidThermo;
        kappa           none;
        alphaAni        Anialpha;
        h               nonuniform 0();
        Ta              constant 513.15;
        emissivityNozzle 0.95;
        emissivityFilament 0.95;
        dNozzle         2;
        dFilament       1.65;
        refValue        nonuniform 0();
        refGradient     nonuniform 0();
        valueFraction   nonuniform 0();
        value           nonuniform 0();
    }
    wall_middle
    {
        type            fixedValue;
        value           nonuniform 0();
    }
    wall_bottom
    {
        type            fixedValue;
        value           uniform 513.15;
    }
    inlet
    {
        type            fixedValue;
        value           nonuniform 0();
    }
    outlet
    {
        type            zeroGradient;
    }
    procBoundary1to0
    {
        type            processor;
        value           nonuniform List<scalar> 
51
(
459.4146042
459.5255195
459.7632803
460.1145972
460.5714466
461.1275001
461.7759019
462.5109152
463.3265628
464.2170806
465.1769717
466.2007631
467.2831545
468.4190113
469.6033326
470.8312318
472.097912
472.097912
473.5581392
474.8846535
476.2357558
477.6067836
478.9937898
480.3924677
481.7988332
483.209201
484.6196358
486.0270494
487.4279198
488.8193017
490.1984566
491.5624866
492.9092338
494.2364403
495.5420368
496.8245362
498.0824171
499.3141371
500.5188169
501.6955869
502.8437648
503.9628522
505.0525697
506.1127244
507.1433605
508.1446451
509.1170227
510.0608665
510.9768804
511.8656864
512.7281565
)
;
    }
    procBoundary1to2
    {
        type            processor;
        value           nonuniform List<scalar> 
51
(
455.040729
455.1521092
455.3906993
455.7434757
456.2030503
456.762569
457.4162862
458.1583907
458.9831254
459.8854021
460.8600138
461.9019616
463.0064783
464.1688855
465.3846049
466.6493476
467.9588651
469.3088884
470.6953924
472.1146557
473.5623376
475.0350304
476.528641
478.0395118
479.5635648
481.0973036
482.6364143
484.1773613
485.715883
487.2485009
488.7710643
490.2802251
491.7722467
493.2440254
494.7981204
494.7981204
496.2126169
497.598767
498.9550025
500.2798019
501.5719938
502.8310277
504.0564555
505.248068
506.4059391
507.5304832
508.6222402
509.6818764
510.7101775
511.7080095
512.6763368
)
;
    }
}


// ************************************************************************* //
