/*--------------------------------*- C++ -*----------------------------------*\
  =========                 |
  \\      /  F ield         | OpenFOAM: The Open Source CFD Toolbox
   \\    /   O peration     | Website:  https://openfoam.org
    \\  /    A nd           | Version:  7
     \\/     M anipulation  |
\*---------------------------------------------------------------------------*/
FoamFile
{
    version     2.0;
    format      ascii;
    class       volScalarField;
    location    "0.0006";
    object      thermo:alpha;
}
// * * * * * * * * * * * * * * * * * * * * * * * * * * * * * * * * * * * * * //

dimensions      [1 -1 -1 0 0 0 0];

internalField   nonuniform List<scalar> 
1167
(
0.0001192378522
0.0001192264354
0.0001192019594
0.0001191657857
0.0001191187107
0.0001190614171
0.0001189903566
0.0001189076015
0.0001188157159
0.0001187153367
0.0001186070607
0.0001184827619
0.0001183497884
0.0001181996492
0.0001180428719
0.0001178800639
0.0001177026283
0.0001175170178
0.0001173200454
0.0001171125797
0.0001168959627
0.0001166680207
0.0001164323
0.0001161943036
0.0001159373982
0.000115678
0.0001154144524
0.0001151404303
0.0001148642531
0.0001145784874
0.0001142926831
0.0001139986036
0.0001137063424
0.0001134168438
0.0001192190857
0.0001192076675
0.000119183189
0.0001191470128
0.0001190999572
0.0001190426651
0.0001189699191
0.0001188871974
0.0001187953513
0.0001186950108
0.0001185860868
0.0001184608646
0.0001183262891
0.000118176248
0.0001180195834
0.0001178569031
0.0001176779731
0.0001174925374
0.0001172941235
0.0001170869268
0.0001168689822
0.0001166414115
0.0001164045303
0.0001161655179
0.000115910723
0.0001156505425
0.0001153877871
0.0001151132989
0.0001148381603
0.0001145522828
0.0001142677636
0.0001139739274
0.0001136831619
0.0001133942249
0.0001131003303
0.0001128018123
0.0001125076192
0.0001122203289
0.0001119293243
0.0001116449352
0.0001113616276
0.0001110817956
0.000110810123
0.000110543892
0.00011027817
0.0001100160864
0.0001097569161
0.0001095057588
0.0001092623746
0.0001090217378
0.0001192003231
0.0001191889038
0.0001191644233
0.0001191282616
0.0001190812102
0.0001190224227
0.0001189494906
0.0001188668037
0.0001187749987
0.0001186747089
0.000118564144
0.0001184389957
0.0001183028158
0.0001181528782
0.0001179963335
0.0001178334303
0.0001176533839
0.0001174681377
0.00011726832
0.0001170614063
0.0001168421737
0.0001166150095
0.0001163770209
0.0001161370519
0.0001158843938
0.0001156234957
0.0001153615747
0.0001150866835
0.0001148126037
0.0001145266767
0.0001142432899
0.0001139498934
0.0001136606141
0.0001133722461
0.0001130799655
0.0001127822487
0.0001124897263
0.0001122040782
0.0001119140622
0.0001116312864
0.0001113490385
0.0001110707639
0.0001108005935
0.0001105354742
0.0001102711812
0.0001100102571
0.0001097524606
0.0001095026289
0.0001092605269
0.000109021109
0.0001191815653
0.0001191701451
0.0001191456632
0.0001191095212
0.0001190624705
0.0001190019967
0.0001189290724
0.0001188464218
0.0001187546597
0.0001186544224
0.0001185422203
0.0001184171491
0.0001182793708
0.0001181295426
0.0001179731256
0.000117808729
0.0001176288621
0.0001174438216
0.0001172426412
0.0001170360203
0.0001168155541
0.0001165888126
0.0001163502744
0.0001161088956
0.0001158578165
0.0001155968371
0.0001153348526
0.0001150605447
0.0001147863069
0.0001145016121
0.0001142183983
0.0001139264298
0.0001136386418
0.0001133508281
0.0001130601314
0.0001127632009
0.0001124723073
0.0001121879511
0.0001118991995
0.0001116179907
0.0001113367704
0.0001110600187
0.0001107913
0.0001105272621
0.0001102643612
0.0001100045673
0.0001097481112
0.0001094995733
0.000109258723
0.0001090204952
0.0001191628129
0.0001191513921
0.0001191269271
0.0001190907879
0.0001190437391
0.0001189815808
0.0001189086881
0.0001188260531
0.0001187343356
0.000118634153
0.0001185203177
0.0001183953269
0.0001182559568
0.0001181062441
0.0001179499811
0.0001177840863
0.0001176044118
0.0001174191676
0.0001172170757
0.0001170107711
0.0001167891176
0.0001165628187
0.000116324816
0.0001160810399
0.0001158307126
0.0001155705454
0.0001153081244
0.0001150348467
0.0001147604915
0.0001144770392
0.0001141940236
0.0001139034763
0.0001136171688
0.0001133299047
0.0001130403957
0.0001127446026
0.0001124552992
0.0001121718551
0.0001118846806
0.0001116049981
0.0001113247774
0.0001110495104
0.0001107822079
0.0001105192253
0.0001102576852
0.0001099989967
0.0001097438523
0.000109496581
0.0001092569564
0.000109019894
0.0001191440666
0.0001191326569
0.000119108201
0.0001190720627
0.0001190236177
0.0001189611761
0.0001188883166
0.0001188057113
0.0001187140279
0.0001186139023
0.0001184984384
0.0001183735317
0.0001182325769
0.0001180830001
0.0001179268907
0.0001177595064
0.0001175800376
0.0001173934268
0.0001171916267
0.0001169855706
0.0001167628548
0.0001165370265
0.000116299588
0.0001160534744
0.000115803929
0.0001155446012
0.0001152817862
0.0001150095576
0.0001147351185
0.0001144529143
0.0001141701165
0.0001138809807
0.0001135961371
0.0001133094197
0.0001130206123
0.0001127263983
0.0001124386499
0.0001121560951
0.0001118704603
0.0001115922679
0.0001113130221
0.0001110392064
0.0001107732894
0.0001105113397
0.0001102511331
0.0001099935284
0.0001097396712
0.0001094936432
0.0001092552219
0.0001090193037
0.0001191253465
0.0001191139381
0.0001190894828
0.0001190533464
0.0001190032176
0.0001189407836
0.000118867959
0.0001187853942
0.0001186937521
0.0001185935496
0.0001184765846
0.0001183515365
0.0001182092504
0.0001180598101
0.0001179038526
0.0001177349932
0.0001175557511
0.0001173677877
0.0001171662984
0.0001169590458
0.000116736766
0.000116510794
0.0001162745852
0.000116026499
0.0001157774521
0.0001155189925
0.0001152558145
0.0001149846571
0.0001147101538
0.0001144292057
0.0001141466342
0.0001138588986
0.000113575501
0.0001132893256
0.0001130012083
0.0001127085423
0.0001124223165
0.0001121406301
0.0001118565015
0.0001115797671
0.0001113014741
0.0001110290803
0.000110764522
0.0001105035854
0.0001102446887
0.0001099881492
0.0001097355577
0.0001094907527
0.0001092535153
0.0001090187229
0.0001191066351
0.0001190952271
0.0001190707731
0.0001190341083
0.0001189828292
0.0001189204136
0.0001188476165
0.0001187650945
0.0001186735045
0.0001185716683
0.0001184547797
0.0001183281417
0.0001181859708
0.0001180366673
0.0001178808702
0.0001177105511
0.000117531565
0.0001173422543
0.000117141094
0.0001169326737
0.0001167108523
0.0001164839106
0.0001162498024
0.0001160009525
0.0001157512697
0.0001154937158
0.0001152301878
0.000114960128
0.0001146855672
0.000114405891
0.0001141235398
0.000113837206
0.0001135552219
0.0001132695824
0.0001129821436
0.0001126909966
0.0001124062658
0.0001121254261
0.0001118427735
0.0001115674685
0.00011129012
0.0001110191109
0.0001107558875
0.0001104959467
0.000110238339
0.0001099828482
0.0001097315036
0.0001094879039
0.0001092518333
0.0001090181505
0.0001190879319
0.0001190765246
0.0001190520726
0.0001190137255
0.0001189624532
0.0001189000708
0.0001188272902
0.0001187448133
0.0001186532783
0.0001185498132
0.0001184330067
0.0001183047841
0.0001181627344
0.0001180135751
0.0001178579473
0.0001176861994
0.0001175074669
0.0001173168304
0.0001171160343
0.000116906456
0.0001166851137
0.0001164572346
0.0001162252355
0.0001159756552
0.0001157253699
0.0001154687371
0.0001152048869
0.0001149359316
0.0001146613323
0.0001143829244
0.0001141008016
0.0001138158612
0.0001135352671
0.0001132501603
0.0001129633844
0.0001126737295
0.0001123904799
0.0001121104554
0.0001118292515
0.0001115553501
0.0001112789283
0.0001110092808
0.0001107473712
0.0001104884107
0.0001102320734
0.0001099776167
0.0001097275024
0.000109485092
0.000109250173
0.0001090175855
0.0001190692374
0.0001190578314
0.0001190327376
0.0001189933546
0.0001189420905
0.0001188797432
0.0001188069923
0.000118724552
0.0001186330748
0.0001185279864
0.000118411266
0.0001182814667
0.0001181395446
0.0001179905371
0.0001178348198
0.0001176619364
0.0001174834603
0.0001172915195
0.0001170911121
0.0001168803945
0.0001166595669
0.0001164307644
0.0001162004677
0.0001159505999
0.0001156997419
0.0001154440425
0.0001151798945
0.0001149120478
0.0001146374258
0.0001143602807
0.000114078392
0.0001137948306
0.0001135156087
0.0001132310419
0.0001129449026
0.0001126567146
0.0001123749206
0.000112095695
0.0001118159151
0.0001115433938
0.0001112678827
0.0001109995759
0.0001107389611
0.000110480967
0.0001102258836
0.0001099724478
0.0001097235487
0.0001094823134
0.0001092485324
0.0001090170272
0.0001190505525
0.0001190390233
0.000119012373
0.0001189729963
0.0001189217499
0.0001188594317
0.0001187867232
0.000118704314
0.0001186128956
0.0001185061896
0.0001183895599
0.0001182581922
0.0001181164045
0.000117967557
0.0001178104061
0.0001176377556
0.0001174595487
0.0001172663379
0.0001170663218
0.0001168544909
0.0001166342032
0.000116404499
0.0001161734614
0.000115925779
0.0001156743965
0.0001154196196
0.0001151552116
0.000114888459
0.0001146138371
0.0001143379383
0.0001140562874
0.0001137740902
0.000113496223
0.0001132121881
0.0001129266745
0.0001126399299
0.0001123595677
0.0001120811261
0.0001118027473
0.0001115315849
0.0001112569699
0.0001109899849
0.0001107306476
0.0001104736073
0.0001102197627
0.0001099673359
0.0001097196383
0.0001094795651
0.0001092469096
0.0001090164749
0.0001190310974
0.0001190186663
0.0001189920205
0.0001189526513
0.0001189014388
0.0001188391374
0.0001187664736
0.0001186841184
0.0001185925425
0.0001184844249
0.0001183678906
0.0001182349635
0.0001180933204
0.0001179446616
0.0001177860672
0.0001176136605
0.0001174357353
0.0001172412872
0.0001170416656
0.0001168287494
0.0001166090147
0.0001163784356
0.0001161466834
0.0001159011868
0.0001156493063
0.0001153954569
0.0001151308138
0.0001148651494
0.0001145905512
0.0001143158782
0.0001140344822
0.0001137536196
0.0001134770901
0.000113193579
0.0001129086803
0.0001126233572
0.0001123444048
0.0001120667334
0.0001117897349
0.0001115194598
0.0001112461787
0.0001109804985
0.000110722423
0.000110466325
0.0001102137052
0.0001099622764
0.0001097157678
0.0001094768448
0.0001092453033
0.0001090159283
0.0001190107501
0.0001189983214
0.0001189716809
0.0001189323205
0.0001188811436
0.0001188188611
0.0001187462448
0.0001186639468
0.0001185707493
0.0001184627066
0.00011834561
0.0001182117966
0.0001180703127
0.0001179218301
0.0001177618068
0.000117589655
0.0001174110949
0.0001172163579
0.0001170171452
0.0001168031897
0.0001165840005
0.0001163529191
0.00011612013
0.0001158768178
0.0001156244605
0.0001153715447
0.0001151066822
0.0001148421051
0.0001145675393
0.0001142940838
0.0001140129501
0.0001137334012
0.0001134581329
0.0001131751976
0.0001128909035
0.0001126069955
0.0001123294181
0.0001120525039
0.0001117768664
0.0001115074504
0.0001112355008
0.0001109711093
0.000110714281
0.0001104591146
0.0001102077068
0.0001099572659
0.0001097119344
0.0001094741505
0.0001092437124
0.0001090153869
0.000118990415
0.000118977989
0.0001189513548
0.0001189120233
0.0001188608651
0.0001187986238
0.0001187260378
0.0001186438003
0.0001185489873
0.0001184410342
0.0001183223704
0.0001181886896
0.000118047363
0.0001178990651
0.0001177376278
0.0001175657421
0.0001173859183
0.0001171915523
0.000116992762
0.0001167777899
0.0001165591596
0.0001163287226
0.0001160937977
0.0001158517701
0.0001155998516
0.0001153475761
0.0001150828057
0.000114819314
0.0001145447877
0.000114272541
0.0001139916698
0.0001137134207
0.0001134386072
0.000113157029
0.0001128733299
0.000112590819
0.0001123145961
0.0001120384271
0.0001117641325
0.0001114955634
0.0001112249291
0.0001109618115
0.0001107062167
0.0001104519719
0.000110201764
0.0001099523014
0.0001097081361
0.0001094714808
0.000109242136
0.0001090148504
0.0001189700928
0.00011895767
0.000118931043
0.0001188917454
0.0001188406043
0.000118778408
0.0001187058543
0.0001186236801
0.000118527258
0.0001184193992
0.0001182991771
0.0001181656355
0.000118024474
0.0001178763694
0.0001177135332
0.0001175419458
0.0001173608553
0.0001171668729
0.0001169673589
0.0001167525499
0.0001165344912
0.0001163047101
0.0001160676827
0.000115826506
0.0001155754735
0.0001153229065
0.0001150591744
0.0001147959611
0.0001145222836
0.0001142512372
0.000113970628
0.0001136936646
0.0001134192999
0.0001131390615
0.0001128559479
0.0001125748158
0.0001122999294
0.0001120244943
0.0001117515266
0.0001114837923
0.0001112144581
0.0001109526005
0.0001106982263
0.0001104448937
0.0001101958743
0.0001099473808
0.0001097043713
0.0001094688345
0.0001092405734
0.0001090143186
0.0001189497841
0.000118937365
0.0001189107662
0.0001188714841
0.000118820362
0.0001187582131
0.0001186857163
0.0001186035874
0.0001185055628
0.0001183978035
0.0001182760322
0.0001181426368
0.0001180016482
0.0001178537454
0.0001176895375
0.0001175182492
0.0001173359082
0.0001171423215
0.0001169417519
0.0001167274704
0.0001165092702
0.0001162808791
0.0001160417806
0.0001158014618
0.0001155513196
0.0001152984747
0.0001150357799
0.0001147725291
0.000114500017
0.0001142293625
0.0001139498126
0.0001136741217
0.0001134001998
0.0001131212849
0.0001128387479
0.0001125589769
0.0001122854102
0.0001120106985
0.0001117390529
0.0001114721316
0.0001112040833
0.0001109434724
0.0001106903067
0.0001104378773
0.0001101900355
0.0001099425025
0.0001097006385
0.0001094662107
0.000109239024
0.0001090137914
0.0001189294896
0.0001189170877
0.0001188905074
0.00011885124
0.0001188001574
0.0001187380402
0.0001186656036
0.0001185825604
0.0001184839033
0.0001183762486
0.0001182529377
0.0001181196956
0.0001179788878
0.0001178306509
0.0001176656438
0.0001174946522
0.0001173110789
0.0001171179153
0.0001169162942
0.0001167025516
0.0001164835183
0.0001162572271
0.0001160169455
0.000115776633
0.0001155273844
0.0001152742737
0.0001150126143
0.0001147493327
0.0001144779787
0.0001142075118
0.0001139292142
0.0001136547836
0.0001133812977
0.0001131036905
0.0001128217348
0.0001125432951
0.0001122710322
0.0001119970339
0.0001117266953
0.0001114605771
0.0001111938011
0.0001109344242
0.0001106824553
0.0001104309207
0.0001101842459
0.000109937665
0.000109696937
0.0001094636088
0.0001092374876
0.0001090132685
0.0001189092317
0.000118896835
0.000118870265
0.000118831014
0.000118779976
0.0001187178904
0.0001186455172
0.0001185608671
0.000118462294
0.0001183547339
0.0001182298955
0.0001180968141
0.0001179562072
0.0001178065792
0.0001176418412
0.0001174711565
0.000117286369
0.0001170936488
0.0001168909863
0.0001166777931
0.0001164579457
0.000116233752
0.000115992842
0.000115752015
0.0001155036834
0.0001152502972
0.0001149896737
0.000114726364
0.0001144561605
0.0001141858815
0.0001139088243
0.0001136356593
0.0001133625855
0.000113086271
0.0001128048917
0.0001125277644
0.0001122567899
0.0001119834958
0.0001117144498
0.0001114491253
0.0001111836086
0.0001109254538
0.0001106746704
0.0001104240223
0.0001101785043
0.0001099328674
0.0001096932658
0.0001094610282
0.0001092359638
0.0001090127499
0.0001188889899
0.0001188765984
0.0001188500399
0.0001188108141
0.0001187598158
0.0001186977739
0.0001186254581
0.0001185392077
0.0001184407329
0.0001183316248
0.0001182069258
0.0001180740176
0.0001179336079
0.000117782591
0.0001176181316
0.000117447764
0.0001172617975
0.0001170695135
0.0001168658285
0.0001166532169
0.0001164325514
0.0001162104523
0.0001159689299
0.0001157276035
0.0001154801927
0.0001152265391
0.0001149669675
0.0001147036157
0.0001144345557
0.0001141644641
0.0001138886357
0.0001136167235
0.0001133440565
0.0001130690203
0.0001127882095
0.0001125123797
0.0001122426792
0.0001119700841
0.0001117023131
0.0001114377735
0.0001111735036
0.0001109165592
0.0001106669505
0.0001104171809
0.0001101728098
0.0001099281089
0.0001096896244
0.0001094584685
0.0001092344523
0.0001090122355
0.0001188687644
0.0001188563786
0.0001188298328
0.000118790648
0.0001187396776
0.000118677695
0.0001186054274
0.0001185175834
0.0001184192119
0.0001183085648
0.0001181840162
0.0001180512846
0.0001179110799
0.0001177586883
0.0001175945169
0.0001174243749
0.0001172373545
0.0001170455101
0.000116840821
0.0001166288008
0.0001164073349
0.0001161853075
0.0001159452057
0.0001157033942
0.0001154569053
0.000115202994
0.0001149444708
0.0001146810817
0.0001144131776
0.0001141432531
0.0001138686422
0.0001135979703
0.000113325705
0.0001130519332
0.0001127716835
0.0001124971369
0.0001122286964
0.0001119568016
0.0001116902827
0.0001114265195
0.0001111634843
0.000110907739
0.0001106592945
0.0001104103956
0.0001101671617
0.000109923389
0.0001096860125
0.0001094559295
0.000109232953
0.0001090117253
0.000118848556
0.0001188361764
0.0001188096527
0.0001187705025
0.0001187195625
0.0001186576422
0.0001185846208
0.0001184959954
0.0001183977323
0.0001182855555
0.0001181611642
0.0001180286167
0.0001178886248
0.000117734873
0.0001175709991
0.0001173996527
0.000117213034
0.0001170216389
0.0001168159796
0.0001166045436
0.0001163822946
0.0001161596338
0.0001159216665
0.0001156793996
0.0001154338167
0.000115179657
0.000114922178
0.0001146587562
0.0001143919999
0.0001141222426
0.0001138488419
0.0001135793947
0.0001133075265
0.0001130343887
0.0001127553093
0.0001124820321
0.0001122148385
0.0001119436359
0.0001116783565
0.0001114153615
0.0001111535494
0.0001108989923
0.0001106517016
0.0001104036657
0.0001101615595
0.0001099187073
0.0001096824297
0.000109453411
0.0001092314658
0.0001090112192
0.0001188283653
0.0001188159942
0.0001187895052
0.0001187503785
0.0001186994787
0.0001186376164
0.0001185629962
0.0001184744454
0.0001183762954
0.0001182625984
0.0001181383712
0.0001180060152
0.0001178662443
0.0001177111465
0.0001175475951
0.0001173750445
0.0001171888368
0.0001169979003
0.000116791297
0.0001165804443
0.000116357498
0.0001161341497
0.0001158983102
0.0001156556061
0.0001154109232
0.0001151565388
0.0001149000846
0.000114636634
0.0001143710178
0.0001141014276
0.0001138292411
0.0001135609922
0.0001132895165
0.0001130168873
0.0001127390835
0.0001124670627
0.000112201103
0.000111930585
0.0001116665329
0.0001114042982
0.0001111436978
0.0001108903181
0.0001106441712
0.0001103969909
0.0001101560028
0.0001099140635
0.0001096788759
0.0001094509128
0.0001092299906
0.0001090107172
0.000118808203
0.0001187958507
0.0001187693781
0.0001187302768
0.0001186794344
0.0001186176186
0.0001185414057
0.0001184529561
0.0001183549025
0.000118239695
0.0001181156388
0.0001179834818
0.0001178439397
0.0001176875242
0.0001175242977
0.0001173505514
0.0001171647641
0.0001169734961
0.0001167667634
0.0001165565014
0.000116334219
0.0001161088534
0.0001158751344
0.0001156320044
0.000115388221
0.000115133626
0.0001148781862
0.0001146147198
0.0001143502266
0.0001140808035
0.0001138098206
0.0001135427588
0.0001132716713
0.0001129995449
0.0001127230036
0.0001124522265
0.0001121871506
0.000111917647
0.0001116548103
0.0001113933285
0.0001111339288
0.000110881716
0.0001106367028
0.0001103903707
0.0001101504915
0.0001099094575
0.000109675351
0.0001094484348
0.0001092285273
0.0001090102193
0.0001169485605
0.0001167423784
0.000116532714
0.0001163111014
0.000116083743
0.0001158512106
0.0001156085914
0.0001153657069
0.0001151109085
0.0001148564789
0.0001145930124
0.0001143296224
0.0001140603662
0.0001137905766
0.0001135246911
0.0001132539878
0.0001129823584
0.0001127070672
0.0001124375214
0.0001121730914
0.0001119048205
0.0001116431879
0.0001113824516
0.0001111242416
0.0001108731855
0.0001106292962
0.000110383805
0.0001101450253
0.0001099048891
0.0001096718548
0.0001094459771
0.000109227076
0.0001090097254
)
;

boundaryField
{
    front_top
    {
        type            wedge;
    }
    front_middle
    {
        type            wedge;
    }
    front_bottom
    {
        type            wedge;
    }
    back_top
    {
        type            wedge;
    }
    back_middle
    {
        type            wedge;
    }
    back_bottom
    {
        type            wedge;
    }
    axis_top
    {
        type            symmetryPlane;
    }
    axis_middle
    {
        type            symmetryPlane;
    }
    axis_bottom
    {
        type            symmetryPlane;
    }
    wall_top
    {
        type            calculated;
        value           nonuniform 0();
    }
    wall_middle
    {
        type            calculated;
        value           nonuniform 0();
    }
    wall_bottom
    {
        type            calculated;
        value           uniform 0.0001089022317;
    }
    inlet
    {
        type            calculated;
        value           nonuniform 0();
    }
    outlet
    {
        type            calculated;
        value           nonuniform 0();
    }
    procBoundary1to0
    {
        type            processor;
        value           nonuniform List<scalar> 
51
(
0.0001187880713
0.0001187757271
0.0001187492722
0.0001187101983
0.0001186594158
0.0001185976497
0.0001185198507
0.0001184315071
0.0001183319336
0.0001182168551
0.000118092972
0.0001179610249
0.0001178204935
0.0001176640036
0.0001175011002
0.0001173261744
0.0001171408163
0.0001171408163
0.0001169237661
0.000116718142
0.0001165083036
0.0001162881434
0.0001160588159
0.0001158271241
0.0001155853644
0.0001153428437
0.0001150883826
0.0001148349589
0.0001145714956
0.0001143092013
0.0001140401214
0.0001137715057
0.000113506786
0.0001132364799
0.0001129653256
0.0001126912723
0.0001124229458
0.0001121591548
0.0001118921048
0.0001116316648
0.0001113716669
0.0001111146359
0.0001108647262
0.0001106219511
0.0001103772937
0.0001101396042
0.0001099003584
0.0001096683874
0.0001094435396
0.0001092256367
0.0001090092356
)
;
    }
    procBoundary1to2
    {
        type            processor;
        value           nonuniform List<scalar> 
51
(
0.0001192566342
0.0001192452067
0.0001192207337
0.0001191845632
0.0001191374695
0.0001190801754
0.000119010802
0.0001189280148
0.0001188361107
0.0001187356875
0.0001186273559
0.0001185046927
0.000118371995
0.0001182230795
0.0001180661968
0.0001179032703
0.0001177273692
0.0001175415759
0.0001173460716
0.0001171383684
0.0001169231147
0.0001166948558
0.0001164603363
0.0001162214027
0.0001159644353
0.0001157059013
0.0001154416038
0.0001151681215
0.0001148909463
0.0001146053551
0.0001143182864
0.0001140240047
0.0001137302427
0.0001134401966
0.0001131213044
0.0001131213044
0.0001128219715
0.0001125260617
0.0001122370796
0.0001119450541
0.0001116589985
0.0001113745946
0.000111093155
0.0001108199309
0.0001105525527
0.0001102853585
0.0001100220809
0.0001097614972
0.0001095089766
0.0001092642742
0.0001090223843
)
;
    }
}


// ************************************************************************* //
