/*--------------------------------*- C++ -*----------------------------------*\
  =========                 |
  \\      /  F ield         | OpenFOAM: The Open Source CFD Toolbox
   \\    /   O peration     | Website:  https://openfoam.org
    \\  /    A nd           | Version:  7
     \\/     M anipulation  |
\*---------------------------------------------------------------------------*/
FoamFile
{
    version     2.0;
    format      ascii;
    class       volScalarField;
    location    "0.0006";
    object      thermo:mu;
}
// * * * * * * * * * * * * * * * * * * * * * * * * * * * * * * * * * * * * * //

dimensions      [1 -1 -1 0 0 0 0];

internalField   nonuniform List<scalar> 
1167
(
62962.69
62423.58735
61285.73067
59647.74532
57591.47146
55198.68943
52550.78676
49724.23762
46790.22272
43812.05328
40843.48906
37929.25336
35104.98155
32398.05372
29827.55083
27406.49944
25142.10716
23037.44748
21090.83273
19298.56862
17654.94498
16152.24944
14782.52598
13536.73227
12406.18716
11381.67165
10454.74586
9616.938743
8860.406258
8177.661261
7561.808913
7006.395178
6505.492666
6053.690806
62079.3579
61548.93045
60429.37275
58817.69828
56795.26502
54440.71307
51835.77156
49054.68608
46167.46691
43236.14783
40314.06397
37445.16986
34664.38705
31998.42864
29466.37026
27081.0715
24849.96015
22775.54781
20856.54101
19089.61195
17468.75313
15986.82627
14635.72558
13406.86344
12291.45429
11280.68904
10366.03079
9539.314224
8792.646877
8118.774762
7510.772056
6962.368362
6467.621503
6021.273609
5618.339004
5254.365087
4925.325202
4627.533719
4357.730821
4112.949546
3890.523531
3688.093402
3503.567235
3335.055402
3180.879462
3039.548197
2909.740698
2790.282253
2680.131623
2578.359694
61210.52264
60688.62294
59587.05229
58001.93482
56012.05389
53695.81753
51132.32503
48395.91105
45554.67741
42669.68587
39793.34728
36968.87916
34230.69844
31605.06519
29110.87343
26760.88509
24562.54271
22517.9732
20626.34348
18884.36378
17286.02988
15824.65754
14491.99151
13279.87956
12179.43654
11182.25054
10279.68999
9463.886256
8726.904751
8061.719298
7461.388122
6919.803603
6431.035646
5989.972028
5591.630812
5231.683844
4906.12064
4611.343126
4344.157916
4101.622498
3881.134047
3680.375964
3497.298899
3330.034986
3176.941801
3036.552605
2907.568309
2788.831359
2679.315699
2578.104107
60355.94809
59842.43197
58758.54337
57199.71197
55241.63244
52963.13254
50440.27554
47747.75572
44951.71274
42112.2543
39280.88345
36500.10092
33803.83248
31217.89411
28761.00193
26446.06395
24279.77964
22264.67098
20400.21048
18682.76314
17106.81272
15665.65829
14351.26837
13155.67091
12070.05415
11086.21738
10195.62906
9390.496136
8663.074795
8006.331056
7413.52832
6878.547735
6395.620858
5959.655885
5565.764206
5209.713087
4887.510672
4595.651786
4330.98897
4090.624471
3872.010234
3672.877694
3491.19872
3325.145957
3173.104915
3033.632199
2905.44955
2787.415791
2678.519409
2577.854606
59515.40048
59010.12677
57944.37992
56410.61669
54483.79649
52242.37207
49760.1898
47110.06545
44358.43378
41563.72905
38776.56559
36038.74454
33383.71195
30836.84913
28416.96653
26136.29511
24001.62723
22015.65843
20177.95852
18484.75036
16930.98605
15509.74656
14213.50634
13034.13416
11963.20866
10992.45978
10113.67645
9319.000126
8600.951288
7952.467555
7367.015793
6838.471647
6361.235192
5930.216304
5540.652278
5188.367064
4869.421278
4580.397246
4318.170899
4079.911362
3863.115884
3665.562433
3485.243171
3320.369748
3169.354433
3030.776173
2903.376658
2786.030402
2677.739875
2577.610294
58688.64875
58191.96824
57143.6866
55634.44021
53739.04683
51533.34659
49091.14085
46483.06671
43774.70368
41023.99007
38280.29071
35584.72293
32970.26311
30462.09236
28078.51774
25831.53242
23728.04478
21771.00079
19959.53488
18290.27789
16758.41445
15356.84621
14078.52596
12915.16575
11858.72123
10900.85908
10033.68179
9249.270976
8540.407043
7900.004691
7321.732242
6799.46477
6327.769488
5901.561648
5516.215976
5167.574495
4851.791036
4565.519892
4305.660516
4069.447344
3854.421632
3658.406412
3479.413232
3315.691359
3165.678761
3027.975812
2901.343376
2784.671044
2676.974778
2577.370449
57876.29682
57387.62394
56356.11163
54870.97079
53006.6017
50835.87221
48432.95543
45866.48455
43200.77346
40492.96285
37791.95901
35138.018
32563.69533
30093.49215
27745.5166
25531.72922
23459.07023
21530.47113
19744.89635
18099.45578
16589.03071
15206.94627
13946.23844
12798.68997
11756.48834
10811.32694
9955.532543
9181.216887
8481.330009
7848.847052
7277.575395
6761.432164
6295.137223
5873.614163
5492.373391
5147.276574
4834.56949
4550.977178
4293.422371
4059.203173
3845.903598
3651.390356
3473.69351
3311.098672
3162.068537
3025.224087
2899.344657
2783.334373
2676.222249
2577.134488
57077.31406
56596.46096
55581.4391
54120.26745
52286.11553
50150.08061
47785.46763
45259.89317
42636.35473
39971.01697
37311.93246
34698.88687
32163.76302
29730.8212
27417.91064
25236.8379
23194.74948
21294.02303
19533.99119
17912.0453
16422.77274
15059.99078
13816.55781
12684.6736
11656.41507
10723.80762
9879.127157
9114.757599
8423.62136
7798.922988
7234.456759
6724.316933
6263.264835
5846.308437
5469.067467
5127.424215
4817.717312
4536.734073
4281.427369
4049.154936
3837.550599
3644.498621
3468.071543
3306.581893
3158.516208
3022.515331
2897.376439
2782.017698
2675.480783
2576.901942
56291.42314
55818.26071
54819.45676
53382.42144
51577.39238
49475.8945
47148.51274
44663.14415
42081.07023
39457.49423
36839.67572
34266.822
31770.27436
29374.01921
27095.64664
24946.99239
22934.85091
21061.60755
19326.91252
17727.98854
16259.5752
14915.81923
13689.40833
12572.94923
11558.4108
10638.14189
9804.373561
9049.757664
8367.193786
7750.11275
7192.299679
6688.033538
6232.089715
5819.594662
5446.250319
5107.976416
4801.211687
4522.761674
4269.651619
4039.283088
3829.338493
3637.718494
3462.537235
3302.133109
3155.015684
3019.844982
2895.435451
2780.718855
2674.749172
2576.672435
55518.40587
55052.80772
54070.27769
52656.63419
50880.24164
48812.6952
46522.26629
44076.08908
41534.78659
38952.27926
36375.05044
33841.7403
31383.16013
29023.02626
26778.72418
24662.06776
22679.32472
20833.17364
19123.52132
17547.22678
16099.47705
14774.36355
13564.7346
12463.43673
11462.39199
10554.24543
9731.188276
8986.136056
8311.969987
7702.344037
7151.037639
6652.511987
6201.558433
5793.440593
5423.881672
5088.898906
4785.009191
4509.036064
4258.07546
4029.571615
3821.254235
3631.039646
3457.082407
3297.745927
3151.562052
3017.209367
2893.519065
2779.436105
2674.026445
2576.445663
54758.04783
54299.95311
53333.87353
51942.70456
50194.73907
48160.30675
45906.52469
43498.6411
40997.37232
38455.25737
35917.95824
33423.55861
31002.35057
28677.78422
26467.30053
24381.88882
22428.11768
20608.78388
18923.69447
17369.70188
15942.35778
14635.56126
13442.55363
12356.05712
11368.35787
10472.0406
9659.543785
8923.820131
8257.904017
7655.553417
7110.612825
6617.700517
6171.625333
5767.786014
5401.927555
5070.162965
4769.085859
4495.537442
4246.682694
4020.007386
3813.287278
3624.453672
3451.700427
3293.415175
3148.151351
3014.605529
2891.625167
2778.168053
2673.311824
2576.221386
54010.53232
53560.19946
52609.50254
51240.43624
49520.89966
47518.55551
45300.80926
42931.15095
40468.7665
37966.31395
35468.30029
33012.19183
30627.82409
28338.57623
26161.03854
24106.40248
22181.17583
20388.36801
18727.37542
17195.37583
15788.10593
14499.34248
13322.68562
12250.74252
11276.16721
10391.45672
9589.339958
8862.744744
8204.941309
7609.68511
7071.001702
6583.55444
6142.251302
5742.597227
5380.359303
5051.744533
4753.421784
4482.249535
4235.460218
4010.588793
3805.428789
3617.953624
3446.385862
3289.136649
3144.780375
3012.031083
2889.752059
2776.913577
2672.604683
2575.999408
53275.68959
52832.53244
51896.96315
50549.63608
48858.05093
46887.27093
44704.96438
42372.90495
39949.2684
37485.61404
35026.16467
32607.78849
30259.77893
28004.97084
25859.8778
23835.55523
21938.58462
20171.75999
18534.50489
17024.31237
15636.65687
14365.66994
13205.0651
12147.42787
11185.74447
10312.42936
9520.49621
8802.851482
8152.99755
7564.689981
7032.14425
6550.035087
6113.404581
5717.845419
5359.152582
5033.63916
4738.000251
4469.158643
4224.396826
4001.297984
3797.671912
3611.53402
3441.134398
3284.906999
3141.446571
3009.484132
2887.898391
2775.67179
2671.904529
2575.779577
52552.84747
52116.74735
51196.05724
49870.73113
48206.01315
46266.88963
44118.83489
41823.75928
39438.23816
37012.97626
34591.54294
32210.17349
29897.79537
27676.89755
25563.75478
23569.28733
21700.23654
19958.90074
18345.0223
16856.29727
15487.94584
14234.54469
13089.63249
12046.12127
11097.02789
10234.91706
9452.955764
8744.087671
8102.024643
7520.524794
6993.990608
6517.109516
6085.078631
5693.505341
5338.28643
5015.815044
4722.807134
4456.253312
4213.483312
3992.127392
3790.010973
3605.190417
3435.942574
3280.723557
3138.147913
3006.963179
2886.063098
2774.441991
2671.210973
2575.561771
51841.80206
51412.64359
50506.59003
49203.01808
47564.60938
45656.66333
43542.27936
41283.57209
38935.54891
36548.06326
34164.03937
31819.09361
29541.79349
27354.28368
25272.60213
23307.76759
21465.97234
19749.73497
18159.00816
16691.26732
15341.91249
14105.80867
12976.3258
11946.72601
11009.96203
10158.90363
9386.667453
8686.443702
8051.978414
7477.150569
6956.506568
6484.747715
6057.223343
5669.556233
5317.743297
4998.256001
4707.830595
4443.524006
4202.712772
3983.071039
3782.4413
3598.919186
3430.807593
3276.584187
3134.882792
3004.467035
2884.245342
2773.223631
2670.523711
2575.345897
51142.35382
50720.02436
49829.03248
48546.1889
46933.66532
45056.38528
42975.73649
40752.20389
38441.07423
36090.76102
33743.55313
31434.45955
29191.69197
27037.05452
24986.49222
23050.71428
21235.72958
19544.20137
17976.3
16529.16508
15198.57152
13979.4004
12865.08442
11849.15055
10924.49292
10084.28089
9321.585351
8629.85321
8002.821418
7434.564325
6919.661119
6452.923273
6029.816676
5645.979889
5297.508141
4980.949733
4693.060682
4430.962765
4192.087772
3974.124006
3774.959068
3592.71738
3425.727198
3272.487177
3131.649928
3001.994767
2882.444466
2772.016283
2669.842505
2575.131881
50454.30725
50039.13083
49162.58794
47900.06341
46313.56624
44465.89584
42418.43671
40229.84649
37954.68611
35640.95564
33329.98286
31056.18087
28847.4098
26725.24341
24705.35706
22798.03389
21009.4432
19342.36671
17796.79416
16369.93219
15057.85849
13855.25928
12755.9109
11753.34214
10840.5703
10011.00217
9257.66646
8574.262037
7954.519085
7392.711311
6883.428028
6421.615403
6002.839485
5622.760431
5277.583402
4963.885745
4678.488989
4418.562928
4181.593381
3965.282229
3767.561148
3586.582605
3420.699576
3268.431165
3128.448309
2999.54564
2880.659957
2770.819613
2669.167175
2574.919667
49778.18807
49369.62817
48506.99525
47264.46478
45703.65918
43885.03759
41870.23363
39716.25905
37476.54954
35198.5351
32923.22719
30684.16655
28509.04086
26418.8689
24428.96549
22549.65624
20787.04641
19144.10868
17620.42854
16213.50736
14919.64118
13733.33012
12648.72678
11659.24976
10758.21949
9939.023923
9194.879536
8519.634648
7907.039832
7351.556168
6847.784128
6390.831645
5976.275145
5599.884109
5257.945944
4947.055034
4664.108369
4406.318883
4171.225239
3956.542353
3760.244979
3580.512925
3415.723271
3264.415068
3125.277142
2997.119083
2878.89142
2769.633367
2668.497579
2574.709214
49113.08723
48711.0187
47862.07395
46639.43607
45103.68704
43313.91679
41330.98067
39211.06703
37006.45473
34763.85851
32523.50078
30318.6947
28176.48744
26117.6351
24157.24506
22305.51098
20568.6271
18949.28394
17447.14071
16059.97041
14783.86313
13613.5603
12543.44301
11566.82423
10677.32858
9868.305317
9133.231124
8465.938487
7860.356704
7311.07436
6812.708581
6360.524483
5950.109047
5577.338934
5238.582213
4930.449857
4649.91272
4394.229274
4160.979699
3947.901598
3753.008464
3574.506767
3410.797118
3260.43803
3122.135805
2994.714654
2877.138552
2768.457353
2667.833615
2574.500488
48458.80109
48063.12079
47227.64685
46025.01067
44513.4873
42752.46209
40800.53409
38714.13817
36544.06738
34336.32809
32130.44635
29959.29173
27849.48384
25821.46139
23890.12167
22065.54285
20354.01658
18757.82803
17276.86968
15909.12492
14650.4735
13495.98682
12440.00679
11476.01798
10597.84682
9798.807944
9072.633864
8413.143526
7814.485148
7271.24366
6778.182593
6330.678242
5924.328256
5555.114376
5219.483751
4914.063509
4635.896797
4382.295294
4150.853687
3939.357648
3745.849874
3568.56286
3405.920187
3256.499378
3119.023818
2992.332018
2875.401127
2767.291428
2667.175206
2574.293468
47815.14938
47425.75621
46603.79421
45420.57968
43932.90096
42200.16071
40279.02827
38225.33889
36089.2645
33915.83257
31743.88628
29605.85735
27527.94286
25530.26818
23627.5238
21829.88224
20143.0827
18569.6755
17109.66041
15760.90911
14519.41687
13380.49832
12338.3714
11386.84747
10519.73404
9730.49582
9013.05601
8361.222075
7769.35722
7232.043844
6744.195393
6301.279105
5898.921758
5533.218877
5200.642697
4897.889945
4622.055978
4370.504619
4140.844567
3930.908547
3738.767778
3562.680163
3401.091733
3252.598582
3115.940811
2989.970921
2873.678977
2766.135487
2666.522297
2574.088138
47181.95527
46798.79989
45990.47341
44825.97921
43361.98159
41656.86552
39766.32554
37744.54769
35641.92472
33502.26093
31363.71874
29258.29724
27211.77679
25243.97333
23369.54483
21598.23256
19935.75944
18384.76218
16945.40026
15615.26481
14390.64338
13267.01324
12238.49293
11299.23167
10442.95267
9663.380053
8954.468038
8310.148502
7724.950995
7193.456377
6710.750267
6272.314312
5873.878949
5511.62941
5182.052698
4881.924073
4608.386307
4358.854241
4130.95009
3922.552643
3731.760976
3556.857821
3396.311152
3248.735227
3112.886499
2987.631173
2871.97198
2764.98946
2665.874852
2573.884486
46559.34582
46182.62312
45387.11469
44241.04784
42800.76205
41122.42809
39261.99213
37272.10898
35201.92904
33095.50285
30989.84167
28916.5167
26900.89735
24962.66048
23116.00982
21370.52233
19731.98183
18203.12101
16783.96643
15472.13132
14264.20627
13155.4858
12140.32907
11213.10875
10367.46743
9597.400919
8896.842397
8259.919616
7681.246217
7155.4642
6677.807493
6243.77216
5849.190299
5490.335152
5163.7082
4866.161686
4594.891752
4347.341389
4121.168241
3914.288486
3724.828443
3551.095116
3391.577953
3244.908979
3109.860664
2985.312633
2870.280048
2763.853294
2665.232846
2573.682506
18024.66865
16625.29911
15331.45472
14139.93909
13045.86976
12043.90949
11128.43968
10293.24426
9532.510633
8840.153199
8210.519958
7638.224069
7118.051542
6645.354032
6215.642005
5824.847571
5469.329419
5145.604044
4850.598796
4581.566781
4335.963822
4111.497345
3906.114862
3717.969318
3545.391456
3386.891737
3241.119578
3106.863137
2983.015199
2868.603124
2762.72696
2664.596264
2573.482194
)
;

boundaryField
{
    front_top
    {
        type            wedge;
    }
    front_middle
    {
        type            wedge;
    }
    front_bottom
    {
        type            wedge;
    }
    back_top
    {
        type            wedge;
    }
    back_middle
    {
        type            wedge;
    }
    back_bottom
    {
        type            wedge;
    }
    axis_top
    {
        type            symmetryPlane;
    }
    axis_middle
    {
        type            symmetryPlane;
    }
    axis_bottom
    {
        type            symmetryPlane;
    }
    wall_top
    {
        type            calculated;
        value           nonuniform 0();
    }
    wall_middle
    {
        type            calculated;
        value           nonuniform 0();
    }
    wall_bottom
    {
        type            calculated;
        value           uniform 2530.329233;
    }
    inlet
    {
        type            calculated;
        value           nonuniform 0();
    }
    outlet
    {
        type            calculated;
        value           nonuniform 0();
    }
    procBoundary1to0
    {
        type            processor;
        value           nonuniform List<scalar> 
51
(
45947.18393
45576.44453
44793.55389
43665.62666
42248.67298
40596.70382
38765.89423
36807.40508
34769.62655
32695.5957
30622.212
28580.52598
26595.46015
24686.19405
22866.75677
21146.67935
19531.68261
19531.68261
17849.26041
16469.34365
15193.26213
14017.79101
12938.11846
11949.14613
11045.18923
10220.28338
9468.680274
8784.375757
8161.900059
7595.866892
7081.220605
6613.377821
6187.914049
5800.865578
5448.606056
5127.735408
4835.23163
4568.403628
4324.719682
4101.936021
3898.030773
3711.1829
3539.746363
3382.252189
3237.366823
3103.893798
2980.738799
2866.941166
2761.610436
2663.9651
2573.28355
)
;
    }
    procBoundary1to2
    {
        type            processor;
        value           nonuniform List<scalar> 
51
(
63861.3531
63312.82872
62156.35373
60491.59664
58400.87329
55969.18687
53277.55037
50404.72578
47423.69966
44397.61344
41381.65329
38421.39466
35552.96457
32804.01884
30194.48533
27737.16038
25439.31628
23303.72968
21329.17903
19511.34239
17844.67917
16321.12084
14932.49862
13669.69577
12523.76916
11485.38282
10546.00261
9696.937812
8930.366881
8238.565154
7614.676403
7052.061899
6544.816955
6087.378472
5646.005718
5646.005718
5277.859959
4945.213936
4644.293815
4371.772805
4124.65987
3900.223352
3696.060375
3510.032855
3340.230231
3184.935733
3042.632395
2911.976362
2791.774867
2680.970756
2578.622481
)
;
    }
}


// ************************************************************************* //
