/*--------------------------------*- C++ -*----------------------------------*\
  =========                 |
  \\      /  F ield         | OpenFOAM: The Open Source CFD Toolbox
   \\    /   O peration     | Website:  https://openfoam.org
    \\  /    A nd           | Version:  7
     \\/     M anipulation  |
\*---------------------------------------------------------------------------*/
FoamFile
{
    version     2.0;
    format      ascii;
    class       volVectorField;
    location    "0.0006";
    object      U;
}
// * * * * * * * * * * * * * * * * * * * * * * * * * * * * * * * * * * * * * //

dimensions      [0 1 -1 0 0 0 0];

internalField   nonuniform List<vector> 
1167
(
(-1.228830481e-06 -2.058010681e-18 -0.0499327314)
(-3.200555337e-06 -3.499059341e-18 -0.04993160388)
(-5.03974862e-06 -5.033203838e-18 -0.0499291864)
(-6.918241263e-06 -8.003747313e-18 -0.0499254631)
(-8.782060409e-06 -4.921516222e-18 -0.04992029521)
(-1.065143955e-05 -6.830909182e-18 -0.04991345285)
(-1.258246741e-05 -7.505332387e-18 -0.04990460834)
(-1.464864958e-05 -1.065759248e-17 -0.04989334176)
(-1.693046114e-05 -1.321236724e-17 -0.04987914914)
(-1.951211465e-05 -1.313929019e-17 -0.04986145152)
(-2.24773093e-05 -1.484492208e-17 -0.04983959654)
(-2.590502105e-05 -1.611279155e-17 -0.04981285103)
(-2.986798123e-05 -1.721219869e-17 -0.04978038776)
(-3.443193059e-05 -1.824561695e-17 -0.04974126874)
(-3.965434719e-05 -1.912493559e-17 -0.04969442588)
(-4.55838443e-05 -2.009786143e-17 -0.04963863813)
(-5.225950579e-05 -2.130628745e-17 -0.0495725054)
(-5.97072993e-05 -2.127480377e-17 -0.04949441993)
(-6.793609012e-05 -2.138025979e-17 -0.04940253412)
(-7.693684794e-05 -2.155125494e-17 -0.04929471996)
(-8.667789251e-05 -2.172658867e-17 -0.049168525)
(-9.710078036e-05 -2.185766089e-17 -0.04902112151)
(-0.0001081175128 -2.191804558e-17 -0.04884924674)
(-0.0001196060244 -2.188772183e-17 -0.04864913798)
(-0.0001314070311 -2.174848462e-17 -0.04841645823)
(-0.0001433220663 -2.148540475e-17 -0.04814621721)
(-0.0001551119646 -2.10563032e-17 -0.04783268575)
(-0.0001664984129 -2.083669939e-17 -0.04746931142)
(-0.0001771673502 -2.040681668e-17 -0.047048634)
(-0.000186776521 -2.051642582e-17 -0.04656221121)
(-0.0001949658059 -2.040597442e-17 -0.04600055806)
(-0.0002013719698 -2.020318972e-17 -0.04535310895)
(-0.0002056460011 -1.990876703e-17 -0.04460820729)
(-0.0002074739114 -1.952209463e-17 -0.04375313043)
(-1.405669229e-06 -1.409374261e-18 -0.04994650647)
(-3.661909056e-06 -1.764586158e-18 -0.0499453593)
(-5.768063573e-06 -3.369240318e-18 -0.04994290387)
(-7.917460639e-06 -5.020436056e-18 -0.04993914863)
(-1.003728828e-05 -5.979193321e-18 -0.04993398645)
(-1.213368993e-05 -7.287777613e-18 -0.04992723039)
(-1.424859193e-05 -8.95556782e-18 -0.04991859823)
(-1.644203463e-05 -1.077192672e-17 -0.04990771263)
(-1.878560608e-05 -1.23988291e-17 -0.04989410164)
(-2.135691347e-05 -1.36751015e-17 -0.04987720478)
(-2.423530688e-05 -1.488371648e-17 -0.04985637711)
(-2.74976155e-05 -1.579294034e-17 -0.04983088614)
(-3.121494888e-05 -1.66464834e-17 -0.04979990137)
(-3.545085686e-05 -1.731931682e-17 -0.0497624782)
(-4.026087367e-05 -1.832308027e-17 -0.04971753773)
(-4.569222293e-05 -1.912597398e-17 -0.04966384255)
(-5.17822796e-05 -1.976395124e-17 -0.04959996984)
(-5.855431817e-05 -2.026746746e-17 -0.04952428156)
(-6.601578256e-05 -2.07338138e-17 -0.04943488868)
(-7.415767397e-05 -2.114088348e-17 -0.04932960978)
(-8.294856495e-05 -2.14864342e-17 -0.04920592612)
(-9.233232068e-05 -2.175838116e-17 -0.04906092781)
(-0.0001022244763 -2.195146818e-17 -0.04889125457)
(-0.000112508871 -2.206004868e-17 -0.04869302968)
(-0.0001230349259 -2.206629823e-17 -0.04846178744)
(-0.0001336164208 -2.197160829e-17 -0.04819239601)
(-0.0001440310603 -2.179329973e-17 -0.04787897718)
(-0.0001540223066 -2.1562572e-17 -0.04751482767)
(-0.0001633038803 -2.128881073e-17 -0.04709234474)
(-0.0001715673984 -2.10412371e-17 -0.04660296207)
(-0.0001784926952 -2.079432377e-17 -0.0460371029)
(-0.0001837615932 -2.052780023e-17 -0.04538415447)
(-0.0001870736956 -2.019859133e-17 -0.04463247091)
(-0.0001881646945 -1.979351581e-17 -0.04376940762)
(-0.0001868239412 -1.930869638e-17 -0.04278138945)
(-0.0001829122909 -1.874786805e-17 -0.04165400763)
(-0.0001763763675 -1.808594117e-17 -0.04037215161)
(-0.0001672602906 -1.731009117e-17 -0.03892016293)
(-0.0001557132633 -1.640219773e-17 -0.03728200826)
(-0.0001419906059 -1.537090192e-17 -0.03544146364)
(-0.0001264510693 -1.421492089e-17 -0.03338229654)
(-0.000109549248 -1.293089919e-17 -0.03108844762)
(-9.182434787e-05 -1.151280904e-17 -0.02854420574)
(-7.388504612e-05 -9.947738745e-18 -0.02573436236)
(-5.639194647e-05 -8.214666227e-18 -0.02264434137)
(-4.003427136e-05 -6.307029218e-18 -0.01926030717)
(-2.551001083e-05 -5.114231062e-18 -0.01556924485)
(-1.356274111e-05 -3.795233058e-18 -0.0115589979)
(-5.105085926e-06 -2.357070317e-18 -0.007218214998)
(-9.08613657e-07 -8.158000227e-19 -0.002536028425)
(-1.555163769e-06 1.859006115e-18 -0.049961188)
(-4.05232548e-06 9.534578736e-18 -0.04996002095)
(-6.385911564e-06 7.880608991e-19 -0.04995752432)
(-8.768584697e-06 -3.088061364e-18 -0.0499537249)
(-1.111302774e-05 -4.941567579e-18 -0.04994853936)
(-1.341522394e-05 -5.502555093e-18 -0.04994181364)
(-1.57054933e-05 -8.889388785e-18 -0.04993330575)
(-1.803062372e-05 -1.092671901e-17 -0.04992267876)
(-2.045170268e-05 -1.255143719e-17 -0.04990949667)
(-2.303821178e-05 -1.40760987e-17 -0.04989322437)
(-2.586391831e-05 -1.575719222e-17 -0.0498732303)
(-2.900194342e-05 -1.529785771e-17 -0.04984878597)
(-3.252116502e-05 -1.638020212e-17 -0.04981905843)
(-3.648374086e-05 -1.716630443e-17 -0.04978309595)
(-4.094398495e-05 -1.799465255e-17 -0.04973980782)
(-4.594796772e-05 -1.849201615e-17 -0.04968793983)
(-5.153055487e-05 -1.835900996e-17 -0.04962604673)
(-5.771273897e-05 -1.886611168e-17 -0.04955246055)
(-6.450189791e-05 -1.990257625e-17 -0.0494652518)
(-7.188814e-05 -2.063875335e-17 -0.04936218785)
(-7.984024432e-05 -2.123854104e-17 -0.04924068613)
(-8.830410442e-05 -2.170180501e-17 -0.0490977589)
(-9.71986816e-05 -2.204658564e-17 -0.04892995431)
(-0.0001064137174 -2.232366283e-17 -0.04873328937)
(-0.0001158072664 -2.248772026e-17 -0.04850317999)
(-0.0001252051127 -2.248771204e-17 -0.04823436581)
(-0.0001344013047 -2.235407068e-17 -0.04792083583)
(-0.0001431601834 -2.209266804e-17 -0.04755575512)
(-0.000151221761 -2.169780296e-17 -0.04713139997)
(-0.0001583089556 -2.115863493e-17 -0.04663910316)
(-0.0001641379748 -2.106728368e-17 -0.04606921881)
(-0.0001684307091 -2.086093268e-17 -0.04541110696)
(-0.0001709291769 -2.053417888e-17 -0.04465314677)
(-0.0001714111252 -2.008200672e-17 -0.04378277809)
(-0.0001697049268 -1.950587343e-17 -0.04278657407)
(-0.0001657045416 -1.906532222e-17 -0.04165033741)
(-0.0001593804782 -1.851982234e-17 -0.04035922867)
(-0.0001507889234 -1.791646634e-17 -0.03889791059)
(-0.000140076955 -1.680518922e-17 -0.03725071233)
(-0.0001274826015 -1.560549083e-17 -0.03540179781)
(-0.0001133317988 -1.426492094e-17 -0.03333533223)
(-9.803157419e-05 -1.29912201e-17 -0.03103565119)
(-8.205982886e-05 -1.155252567e-17 -0.0284874213)
(-6.595281617e-05 -1.006135561e-17 -0.0256757805)
(-5.029018736e-05 -8.422365309e-18 -0.02258645755)
(-3.567543863e-05 -6.647990678e-18 -0.01920587442)
(-2.271935861e-05 -5.304084506e-18 -0.01552122143)
(-1.20739671e-05 -3.870559305e-18 -0.01152049321)
(-4.543451379e-06 -2.371742604e-18 -0.007192438972)
(-8.084548881e-07 -8.119773803e-19 -0.002526260302)
(-1.679363242e-06 -1.743520184e-18 -0.04997663036)
(-4.376960913e-06 -2.36877308e-18 -0.04997544421)
(-6.901112812e-06 -9.627721242e-19 -0.04997290668)
(-9.48004402e-06 -5.098561782e-18 -0.04996905876)
(-1.201584004e-05 -7.338460276e-18 -0.04996383465)
(-1.449779468e-05 -8.881047318e-18 -0.04995710459)
(-1.694809323e-05 -1.027180427e-17 -0.04994866017)
(-1.940170469e-05 -1.154248639e-17 -0.04993820071)
(-2.19080331e-05 -1.272229993e-17 -0.04992532618)
(-2.452775108e-05 -1.372253517e-17 -0.0499095308)
(-2.73275833e-05 -1.488518334e-17 -0.04989020203)
(-3.037586856e-05 -1.614515323e-17 -0.04986661977)
(-3.373857461e-05 -1.7392576e-17 -0.04983795097)
(-3.747609823e-05 -1.862811154e-17 -0.04980323729)
(-4.164178779e-05 -1.94571758e-17 -0.04976137609)
(-4.628011258e-05 -2.015345721e-17 -0.04971109634)
(-5.142338272e-05 -2.049353819e-17 -0.04965093063)
(-5.709145721e-05 -2.056046136e-17 -0.04957918038)
(-6.329135964e-05 -2.020493779e-17 -0.04949387669)
(-7.001227207e-05 -2.052814208e-17 -0.04939273807)
(-7.722375428e-05 -2.144803412e-17 -0.04927312074)
(-8.487332547e-05 -2.19592693e-17 -0.0491319635)
(-9.288339728e-05 -2.209983558e-17 -0.04896572825)
(-0.0001011494589 -2.288820178e-17 -0.04877033368)
(-0.0001095380124 -2.357353017e-17 -0.04854108718)
(-0.0001178864992 -2.34020364e-17 -0.0482726126)
(-0.0001260046007 -2.320895922e-17 -0.04795878112)
(-0.0001336765811 -2.295146533e-17 -0.04759264379)
(-0.0001406669562 -2.256263168e-17 -0.04716637488)
(-0.0001467274542 -2.195998147e-17 -0.04667122602)
(-0.0001516070192 -2.17865317e-17 -0.0460975002)
(-0.0001550629326 -2.16677492e-17 -0.04543454584)
(-0.0001568739593 -2.133144132e-17 -0.04467077677)
(-0.0001568532533 -2.077000652e-17 -0.04379371999)
(-0.0001548613204 -2.056342044e-17 -0.0427900892)
(-0.0001508182919 -1.978785417e-17 -0.04164588195)
(-0.0001447125209 -1.884266232e-17 -0.04034650234)
(-0.0001366078713 -1.770461204e-17 -0.03887689739)
(-0.0001266467495 -1.689556629e-17 -0.03722171297)
(-0.0001150499629 -1.590184853e-17 -0.03536544876)
(-0.0001021135258 -1.599665904e-17 -0.03329261327)
(-8.820264916e-05 -1.336862425e-17 -0.03098788255)
(-7.374240339e-05 -1.189280418e-17 -0.02843624731)
(-5.920743489e-05 -1.027053528e-17 -0.02562314272)
(-4.510914638e-05 -8.44663089e-18 -0.02253456172)
(-3.197919983e-05 -6.879452387e-18 -0.01915715108)
(-2.035562458e-05 -5.206205148e-18 -0.01547828285)
(-1.08141913e-05 -3.405689106e-18 -0.01148608918)
(-4.068655202e-06 -1.999937253e-18 -0.007169415684)
(-7.238670409e-07 -5.008701427e-19 -0.002517535754)
(-1.780316429e-06 -6.808039699e-18 -0.04999269827)
(-4.64127186e-06 -1.965002395e-17 -0.04999149423)
(-7.321307284e-06 -1.553845306e-17 -0.04998891809)
(-1.006121545e-05 -1.149326031e-17 -0.04998502244)
(-1.275638984e-05 -1.130064461e-17 -0.04997975336)
(-1.539107024e-05 -1.302123331e-17 -0.04997299924)
(-1.798122044e-05 -1.199334128e-17 -0.04996457815)
(-2.055318507e-05 -1.247901374e-17 -0.04995422136)
(-2.314524183e-05 -1.3630586e-17 -0.04994156159)
(-2.580864627e-05 -1.262621694e-17 -0.04992612351)
(-2.860245922e-05 -1.364923599e-17 -0.0499073175)
(-3.158906307e-05 -1.650215063e-17 -0.04988443628)
(-3.483046132e-05 -1.779023607e-17 -0.04985664992)
(-3.838491094e-05 -1.967697886e-17 -0.04982299514)
(-4.230416706e-05 -2.044804632e-17 -0.04978235815)
(-4.663019173e-05 -2.159398482e-17 -0.04973345178)
(-5.13937257e-05 -2.288894787e-17 -0.04967478585)
(-5.661465175e-05 -2.337541724e-17 -0.04960463136)
(-6.229861297e-05 -2.324637568e-17 -0.04952098122)
(-6.843392249e-05 -2.335006773e-17 -0.04942150657)
(-7.499139042e-05 -2.351192408e-17 -0.04930350508)
(-8.192017483e-05 -2.371851295e-17 -0.04916384658)
(-8.914627157e-05 -2.387107645e-17 -0.04899891218)
(-9.6570691e-05 -2.386500325e-17 -0.04880453013)
(-0.0001040681348 -2.382811369e-17 -0.04857590862)
(-0.0001114873533 -2.388624873e-17 -0.04830756778)
(-0.0001186528395 -2.391519454e-17 -0.04799327448)
(-0.0001253676929 -2.394790583e-17 -0.04762598165)
(-0.0001314189936 -2.402356085e-17 -0.04719777782)
(-0.000136584814 -2.421775884e-17 -0.04669985006)
(-0.0001406433241 -2.425977142e-17 -0.04612246494)
(-0.0001433828725 -2.364679725e-17 -0.04545497065)
(-0.0001446136981 -2.321912471e-17 -0.04468582217)
(-0.0001441788278 -2.293513854e-17 -0.04380263325)
(-0.0001419653559 -2.206433087e-17 -0.04279224995)
(-0.0001379139007 -2.09234809e-17 -0.04164084792)
(-0.0001320259798 -1.973986034e-17 -0.04033404931)
(-0.0001243698394 -1.847633647e-17 -0.0388570535)
(-0.0001150818906 -1.761386329e-17 -0.03719478402)
(-0.0001043664106 -1.668840603e-17 -0.03533203243)
(-9.249242074e-05 -1.578734022e-17 -0.03325360567)
(-7.978835516e-05 -1.482917296e-17 -0.03094447485)
(-6.663385769e-05 -1.291419079e-17 -0.02838991154)
(-5.345104109e-05 -1.100891892e-17 -0.02557560889)
(-4.069361748e-05 -9.083579033e-18 -0.02248779058)
(-2.88328064e-05 -7.07472476e-18 -0.01911330165)
(-1.834562729e-05 -5.394406785e-18 -0.01543967685)
(-9.743988621e-06 -3.554664861e-18 -0.01145517465)
(-3.665744256e-06 -2.515095151e-18 -0.007148733182)
(-6.522093603e-07 -5.465008076e-19 -0.002509698455)
(-1.860578543e-06 3.524421713e-18 -0.05000926721)
(-4.851235439e-06 -3.841373127e-18 -0.05000804709)
(-7.654457315e-06 -7.648391819e-18 -0.05000543625)
(-1.052253457e-05 -9.039204485e-18 -0.05000149612)
(-1.334681826e-05 -1.00466606e-17 -0.04999618103)
(-1.610722249e-05 -1.104412093e-17 -0.04998939361)
(-1.881465252e-05 -1.170819796e-17 -0.04998097149)
(-2.149005214e-05 -1.245586458e-17 -0.04997067264)
(-2.416282006e-05 -1.343970586e-17 -0.04995815918)
(-2.687411578e-05 -1.50539067e-17 -0.04994298468)
(-2.967482313e-05 -1.516476664e-17 -0.04992458399)
(-3.262104443e-05 -1.574275266e-17 -0.04990226607)
(-3.577020273e-05 -1.606108529e-17 -0.04987520749)
(-3.917723259e-05 -1.788112167e-17 -0.04984244276)
(-4.289078299e-05 -1.950126945e-17 -0.04980284888)
(-4.695075037e-05 -2.126558793e-17 -0.04975512279)
(-5.138732202e-05 -2.201005237e-17 -0.04969775128)
(-5.621967564e-05 -2.298907285e-17 -0.04962897563)
(-6.145201949e-05 -2.425829744e-17 -0.04954675221)
(-6.707278181e-05 -2.483603834e-17 -0.04944870591)
(-7.305342394e-05 -2.483215474e-17 -0.04933207879)
(-7.934470503e-05 -2.531344517e-17 -0.0491936756)
(-8.587637456e-05 -2.52482069e-17 -0.04902980225)
(-9.255487828e-05 -2.453296276e-17 -0.04883620389)
(-9.926299668e-05 -2.386844108e-17 -0.04860799856)
(-0.0001058603574 -2.399582369e-17 -0.04833961368)
(-0.0001121854881 -2.404460296e-17 -0.04802472436)
(-0.0001180589918 -2.402173926e-17 -0.04765619923)
(-0.0001232886785 -2.393764483e-17 -0.04722605536)
(-0.0001276763466 -2.380813217e-17 -0.04672542885)
(-0.0001310261199 -2.353067967e-17 -0.04614456158)
(-0.0001331534205 -2.313582827e-17 -0.0454728099)
(-0.0001338954486 -2.269213146e-17 -0.04469867356)
(-0.0001331203561 -2.22096789e-17 -0.04380985089)
(-0.0001307369891 -2.145027133e-17 -0.04279331194)
(-0.0001267022186 -2.06136825e-17 -0.04163539451)
(-0.0001210272424 -1.971424666e-17 -0.04032191566)
(-0.0001137822499 -1.876450137e-17 -0.03883829914)
(-0.0001050969869 -1.780675167e-17 -0.03716971295)
(-9.516019048e-05 -1.660327267e-17 -0.03530120429)
(-8.421670595e-05 -1.536652246e-17 -0.03321784077)
(-7.256277519e-05 -1.409535123e-17 -0.03090485108)
(-6.053884779e-05 -1.265270356e-17 -0.02834775212)
(-4.85221513e-05 -1.107146367e-17 -0.02553246308)
(-3.691744047e-05 -9.473078013e-18 -0.02244541124)
(-2.614487887e-05 -7.778303483e-18 -0.01907361832)
(-1.663011203e-05 -6.084211275e-18 -0.01540476643)
(-8.83133134e-06 -4.372969644e-18 -0.01142723132)
(-3.32243223e-06 -2.634757134e-18 -0.007130040649)
(-5.912161781e-07 -9.005433605e-19 -0.002502614114)
(-1.921655783e-06 -2.83897952e-18 -0.05002622439)
(-5.010794522e-06 -4.745941648e-18 -0.05002499082)
(-7.90780978e-06 -4.192810826e-18 -0.05002235016)
(-1.087481393e-05 -8.104085804e-18 -0.05001837028)
(-1.379949047e-05 -1.03937332e-17 -0.0500130117)
(-1.665933407e-05 -1.153925474e-17 -0.05000618821)
(-1.946188265e-05 -1.226066414e-17 -0.04999775163)
(-2.22232705e-05 -1.265255525e-17 -0.04998748109)
(-2.496664231e-05 -1.273112097e-17 -0.04997506444)
(-2.772473681e-05 -1.521652881e-17 -0.04996008183)
(-3.053991525e-05 -1.572766048e-17 -0.04994199208)
(-3.346132152e-05 -1.644898993e-17 -0.04992012217)
(-3.654079523e-05 -1.718459064e-17 -0.04989365827)
(-3.982872955e-05 -1.784827475e-17 -0.0498616358)
(-4.337063047e-05 -1.859851194e-17 -0.04982292429)
(-4.720477757e-05 -1.932141825e-17 -0.04977620532)
(-5.136069803e-05 -2.018510535e-17 -0.04971994344)
(-5.585582191e-05 -2.116035393e-17 -0.04965235144)
(-6.069310226e-05 -2.205140704e-17 -0.04957134995)
(-6.586188391e-05 -2.272964982e-17 -0.04947451943)
(-7.133400354e-05 -2.318953864e-17 -0.04935904966)
(-7.706214612e-05 -2.350505971e-17 -0.04922168371)
(-8.297953599e-05 -2.380087176e-17 -0.04905865789)
(-8.899799593e-05 -2.394285427e-17 -0.04886564083)
(-9.500812337e-05 -2.400604082e-17 -0.04863766916)
(-0.0001008799251 -2.404403716e-17 -0.04836908749)
(-0.000106465061 -2.400625327e-17 -0.04805349067)
(-0.0001116003188 -2.382634205e-17 -0.04768367504)
(-0.0001161124013 -2.35023314e-17 -0.04725159848)
(-0.000119824473 -2.302483008e-17 -0.04674835724)
(-0.0001225635198 -2.23685668e-17 -0.04616417788)
(-0.0001241685776 -2.211173366e-17 -0.04548843067)
(-0.0001244998402 -2.16347027e-17 -0.04470966207)
(-0.0001234464321 -2.095589992e-17 -0.04381565162)
(-0.0001209349695 -2.042301904e-17 -0.0427934845)
(-0.0001169352969 -1.972713416e-17 -0.04162964601)
(-0.0001114657155 -1.886331048e-17 -0.04031012812)
(-0.0001045966716 -1.782333572e-17 -0.0388205542)
(-9.645089491e-05 -1.659205469e-17 -0.03714630844)
(-8.720272401e-05 -1.575648365e-17 -0.03527266311)
(-7.707560945e-05 -1.480628756e-17 -0.03318491506)
(-6.633750994e-05 -1.324631814e-17 -0.0308685195)
(-5.529504829e-05 -1.086962045e-17 -0.02830920934)
(-4.428697536e-05 -9.995979843e-18 -0.02549310361)
(-3.367637102e-05 -8.223266798e-18 -0.0224068109)
(-2.384011886e-05 -6.726415166e-18 -0.01903751195)
(-1.5160423e-05 -5.473544376e-18 -0.01537302361)
(-8.050075241e-06 -4.057366038e-18 -0.01140183148)
(-3.028802951e-06 -2.513445001e-18 -0.007113050089)
(-5.391167107e-07 -8.672150217e-19 -0.00249617331)
(-1.964862593e-06 -1.070393842e-17 -0.05004346875)
(-5.123946591e-06 -1.089404305e-17 -0.05004222405)
(-8.08853953e-06 -1.227870599e-17 -0.05003955811)
(-1.112818375e-05 -8.977364322e-18 -0.05003554387)
(-1.412718312e-05 -1.345645394e-17 -0.05003014678)
(-1.706197848e-05 -1.328103299e-17 -0.05002328851)
(-1.993805006e-05 -1.366343937e-17 -0.05001483194)
(-2.276723915e-05 -1.357932765e-17 -0.05000457202)
(-2.556821046e-05 -1.303497051e-17 -0.04999221779)
(-2.836720647e-05 -1.42809068e-17 -0.04997737319)
(-3.119885903e-05 -1.604478485e-17 -0.04995952004)
(-3.410487253e-05 -1.716634436e-17 -0.04993800394)
(-3.713071252e-05 -1.818708205e-17 -0.04991202267)
(-4.032194521e-05 -1.730522939e-17 -0.04988061465)
(-4.372101284e-05 -1.786522088e-17 -0.0498426436)
(-4.736433353e-05 -1.806545339e-17 -0.04979677729)
(-5.12796119e-05 -1.787116235e-17 -0.04974145948)
(-5.548223985e-05 -1.958591902e-17 -0.04967487604)
(-5.997491957e-05 -2.076005407e-17 -0.04959491249)
(-6.474708487e-05 -2.154767623e-17 -0.04949910684)
(-6.977101858e-05 -2.199252572e-17 -0.04938459947)
(-7.500199046e-05 -2.206583278e-17 -0.0492480756)
(-8.037645711e-05 -2.280290397e-17 -0.04908570736)
(-8.581155403e-05 -2.330001679e-17 -0.04889309307)
(-9.120529373e-05 -2.365307398e-17 -0.04866519612)
(-9.643748868e-05 -2.395256124e-17 -0.04839628721)
(-0.0001013720698 -2.429262783e-17 -0.04807989125)
(-0.0001058606692 -2.393371649e-17 -0.04770874247)
(-0.0001097471424 -2.358973476e-17 -0.04727475013)
(-0.000112873735 -2.277815209e-17 -0.04676897959)
(-0.0001150875482 -2.246362283e-17 -0.04618164952)
(-0.0001162482128 -2.207252111e-17 -0.04550214808)
(-0.0001162354122 -2.159244106e-17 -0.04471906914)
(-0.0001149558351 -2.10185482e-17 -0.04382026889)
(-0.0001123506028 -2.035634135e-17 -0.04279293923)
(-0.0001083997759 -1.95858804e-17 -0.04162369962)
(-0.0001031269521 -1.86971189e-17 -0.04029869943)
(-9.660156706e-05 -1.767833278e-17 -0.03880374017)
(-8.893930418e-05 -1.651842222e-17 -0.03712439777)
(-8.030131531e-05 -1.546795228e-17 -0.03524614393)
(-7.089207903e-05 -1.424897353e-17 -0.03315447915)
(-6.095482505e-05 -1.31502496e-17 -0.03083505879)
(-5.076692241e-05 -1.190791213e-17 -0.02827380647)
(-4.063408295e-05 -1.068302621e-17 -0.02545702014)
(-3.088378213e-05 -9.403097533e-18 -0.02237147147)
(-2.185605908e-05 -7.75558409e-18 -0.01900448565)
(-1.389622077e-05 -6.156782886e-18 -0.0153440038)
(-7.378514775e-06 -4.494816349e-18 -0.01137861515)
(-2.776582001e-06 -2.760672937e-18 -0.00709751897)
(-4.944077613e-07 -9.487826363e-19 -0.002490283697)
(-1.992275397e-06 -2.895307521e-18 -0.05006090848)
(-5.195954917e-06 -5.22308306e-18 -0.05005965468)
(-8.204704048e-06 -6.587509316e-18 -0.05005696788)
(-1.129260983e-05 -8.236328008e-18 -0.05005292502)
(-1.434178263e-05 -9.717491843e-18 -0.05004749585)
(-1.732850549e-05 -1.107804509e-17 -0.05004060703)
(-2.025742268e-05 -1.231483102e-17 -0.05003213041)
(-2.313692915e-05 -1.355512855e-17 -0.05002187237)
(-2.59816195e-05 -1.476164338e-17 -0.05000955876)
(-2.881258113e-05 -1.584139755e-17 -0.04999481377)
(-3.16579385e-05 -1.664391772e-17 -0.04997714027)
(-3.455260219e-05 -1.736124093e-17 -0.04995590221)
(-3.753583839e-05 -1.803722738e-17 -0.04993030994)
(-4.06481613e-05 -1.857309072e-17 -0.04989940645)
(-4.392831665e-05 -1.910326463e-17 -0.0498620516)
(-4.741025255e-05 -1.968792273e-17 -0.04981690113)
(-5.111881853e-05 -2.036755665e-17 -0.04976238004)
(-5.506759909e-05 -2.092385322e-17 -0.04969664811)
(-5.925974872e-05 -2.146776351e-17 -0.0496175573)
(-6.36842499e-05 -2.194398801e-17 -0.04952260578)
(-6.831401713e-05 -2.233600132e-17 -0.04940888664)
(-7.310659787e-05 -2.264782391e-17 -0.04927303125)
(-7.800167271e-05 -2.293050169e-17 -0.04911115243)
(-8.292170254e-05 -2.313902374e-17 -0.04891878425)
(-8.777174277e-05 -2.324445052e-17 -0.04869082424)
(-9.244086483e-05 -2.322575765e-17 -0.04842147736)
(-9.6804414e-05 -2.306386255e-17 -0.04810420755)
(-0.0001007275914 -2.292936477e-17 -0.04773169593)
(-0.0001040697194 -2.263128697e-17 -0.04729581178)
(-0.0001066899583 -2.237445759e-17 -0.04678759702)
(-0.0001084531078 -2.22081987e-17 -0.04619726789)
(-0.0001092365507 -2.18941559e-17 -0.04551423343)
(-0.0001089366271 -2.146851562e-17 -0.04472713437)
(-0.0001074750118 -2.094470596e-17 -0.04382389905)
(-0.0001048044131 -2.032274324e-17 -0.04279181789)
(-0.0001009128204 -1.959943443e-17 -0.04161763226)
(-9.58276308e-05 -1.877616821e-17 -0.04028763412)
(-8.961661255e-05 -1.785645851e-17 -0.03878778433)
(-8.238863114e-05 -1.684142465e-17 -0.03710382893)
(-7.429283433e-05 -1.573504628e-17 -0.0352214179)
(-6.551672987e-05 -1.451454166e-17 -0.03312623331)
(-5.628204647e-05 -1.337354137e-17 -0.03080410893)
(-4.684078272e-05 -1.212471122e-17 -0.0282411388)
(-3.747023178e-05 -1.079768412e-17 -0.02542378176)
(-2.846733715e-05 -9.409545344e-18 -0.02233895729)
(-2.01406329e-05 -7.88427363e-18 -0.01897412294)
(-1.280394218e-05 -6.242452972e-18 -0.01531733539)
(-6.798629174e-06 -4.550499802e-18 -0.01135728233)
(-2.558921741e-06 -2.792455932e-18 -0.007083245755)
(-4.558568384e-07 -9.591594431e-19 -0.002484868853)
(-2.005501811e-06 -2.507892773e-18 -0.05007846042)
(-5.231105623e-06 -4.751970059e-18 -0.05007719962)
(-8.263047262e-06 -6.713233015e-18 -0.05007449644)
(-1.137688437e-05 -9.381045732e-18 -0.05007043152)
(-1.445432192e-05 -6.514652925e-18 -0.05006497742)
(-1.747194943e-05 -8.807667159e-18 -0.05005806404)
(-2.04340855e-05 -1.055790693e-17 -0.05004957027)
(-2.334684285e-05 -1.270007468e-17 -0.05003931145)
(-2.622097919e-05 -1.509872162e-17 -0.05002702589)
(-2.907368007e-05 -1.522788382e-17 -0.05001235449)
(-3.192769654e-05 -1.603739272e-17 -0.04999481837)
(-3.481184171e-05 -1.702173313e-17 -0.04997379859)
(-3.775942875e-05 -1.81233806e-17 -0.04994851823)
(-4.080585795e-05 -1.950426898e-17 -0.04991802616)
(-4.398616814e-05 -1.981106696e-17 -0.04988117988)
(-4.733056394e-05 -2.031906286e-17 -0.04983662533)
(-5.086068795e-05 -2.227017826e-17 -0.04978277054)
(-5.458933033e-05 -2.205704733e-17 -0.04971775013)
(-5.851906056e-05 -2.214105971e-17 -0.04963938435)
(-6.263830725e-05 -2.234781168e-17 -0.04954513397)
(-6.69214033e-05 -2.25852019e-17 -0.04943204763)
(-7.132772645e-05 -2.280359593e-17 -0.04929670672)
(-7.580026471e-05 -2.297200532e-17 -0.04913516899)
(-8.026635655e-05 -2.305019998e-17 -0.04894291012)
(-8.463772444e-05 -2.300184611e-17 -0.04871476824)
(-8.881215711e-05 -2.277716785e-17 -0.04844489008)
(-9.267550722e-05 -2.229578313e-17 -0.04812668634)
(-9.610534529e-05 -2.231633039e-17 -0.04775279294)
(-9.897486455e-05 -2.21014593e-17 -0.04731504636)
(-0.0001011582687 -2.214008545e-17 -0.04680447108)
(-0.0001025357807 -2.198361667e-17 -0.04621128502)
(-0.0001030001353 -2.171067529e-17 -0.04552491977)
(-0.0001024619291 -2.132830693e-17 -0.04473406173)
(-0.0001008554271 -2.084363242e-17 -0.04382670759)
(-9.814281911e-05 -2.025602476e-17 -0.04279023846)
(-9.43182969e-05 -1.956580427e-17 -0.04161150588)
(-8.941167871e-05 -1.877642317e-17 -0.0402769313)
(-8.348877727e-05 -1.788906244e-17 -0.03877261897)
(-7.665198784e-05 -1.69057969e-17 -0.03708446735)
(-6.903957195e-05 -1.582686787e-17 -0.03519828611)
(-6.08239607e-05 -1.464990826e-17 -0.03309992006)
(-5.220803692e-05 -1.337844903e-17 -0.03077536314)
(-4.342175448e-05 -1.200812304e-17 -0.02821086284)
(-3.471786161e-05 -1.05324926e-17 -0.02539302382)
(-2.636703117e-05 -8.945908725e-18 -0.02230890061)
(-1.86507569e-05 -7.241865929e-18 -0.01894607298)
(-1.185588079e-05 -5.794634569e-18 -0.01529270588)
(-6.29557862e-06 -4.251689928e-18 -0.01133758098)
(-2.3702012e-06 -2.619008353e-18 -0.007070061291)
(-4.224551336e-07 -9.01036591e-19 -0.002479864658)
(-2.006268953e-06 -2.138747604e-18 -0.0500960491)
(-5.233876189e-06 -3.686698827e-18 -0.05009478328)
(-8.269437907e-06 -4.868691441e-18 -0.05009206846)
(-1.138872411e-05 -6.203819866e-18 -0.05008798839)
(-1.447513979e-05 -7.647803735e-18 -0.05008251679)
(-1.750490393e-05 -9.154092663e-18 -0.0500755862)
(-2.048163701e-05 -1.064624085e-17 -0.05006708034)
(-2.341122515e-05 -1.198810888e-17 -0.05005682199)
(-2.630113488e-05 -1.329134875e-17 -0.05004455863)
(-2.916458669e-05 -1.450989296e-17 -0.05002994407)
(-3.202033103e-05 -1.549053808e-17 -0.05001251489)
(-3.489197508e-05 -1.638306803e-17 -0.04999166739)
(-3.780743291e-05 -1.723299161e-17 -0.04996663676)
(-4.079747971e-05 -1.804318432e-17 -0.04993647816)
(-4.389246134e-05 -1.885173958e-17 -0.04990004852)
(-4.711796225e-05 -1.961544101e-17 -0.0498559861)
(-5.049324998e-05 -2.03235562e-17 -0.04980268277)
(-5.403051532e-05 -2.092489579e-17 -0.04973824977)
(-5.773086078e-05 -2.145865387e-17 -0.04966047809)
(-6.158212275e-05 -2.192585765e-17 -0.04956679287)
(-6.556010064e-05 -2.232851968e-17 -0.04945420105)
(-6.962597511e-05 -2.265977569e-17 -0.04931923797)
(-7.372619395e-05 -2.2911577e-17 -0.0491579107)
(-7.779252251e-05 -2.307604142e-17 -0.04896564201)
(-8.174302178e-05 -2.315489906e-17 -0.04873721626)
(-8.548351039e-05 -2.315097234e-17 -0.04846672883)
(-8.890952837e-05 -2.305960667e-17 -0.0481475437)
(-9.190980715e-05 -2.289112934e-17 -0.04777225857)
(-9.43700598e-05 -2.265528162e-17 -0.04733268282)
(-9.617769894e-05 -2.237215629e-17 -0.04681982862)
(-9.722652577e-05 -2.20551773e-17 -0.04622391835)
(-9.742247009e-05 -2.170314034e-17 -0.04553440723)
(-9.668816262e-05 -2.128478349e-17 -0.04474002572)
(-9.496835158e-05 -2.078428819e-17 -0.04382883461)
(-9.223318095e-05 -2.019439378e-17 -0.04278829863)
(-8.848176371e-05 -1.951208213e-17 -0.04160536976)
(-8.374537264e-05 -1.873215675e-17 -0.04026658685)
(-7.808753278e-05 -1.785434328e-17 -0.0387581836)
(-7.160454898e-05 -1.687387405e-17 -0.0370661958)
(-6.442500271e-05 -1.57911234e-17 -0.03517657704)
(-5.670779338e-05 -1.460417853e-17 -0.0330753189)
(-4.863927477e-05 -1.330870505e-17 -0.03074856002)
(-4.043017239e-05 -1.19029383e-17 -0.02818268705)
(-3.231197349e-05 -1.038174853e-17 -0.02536443782)
(-2.453267231e-05 -8.738271026e-18 -0.02228099112)
(-1.735045978e-05 -6.95652616e-18 -0.01892004039)
(-1.102894644e-05 -5.587172568e-18 -0.01526985261)
(-5.857019473e-06 -4.107014453e-18 -0.01131929962)
(-2.205755501e-06 -2.532060967e-18 -0.007057823807)
(-3.933691508e-07 -8.71446035e-19 -0.002475217445)
(-1.996002428e-06 -1.138428147e-18 -0.05011360664)
(-5.207417488e-06 -1.496236549e-18 -0.05011233812)
(-8.228658358e-06 -1.800921538e-18 -0.050109617)
(-1.133537932e-05 -2.160802874e-18 -0.05010552851)
(-1.441316984e-05 -8.120983443e-18 -0.05010004688)
(-1.74378808e-05 -9.33672127e-18 -0.05009310729)
(-2.041246383e-05 -1.152671458e-17 -0.05008459587)
(-2.334304345e-05 -1.146057652e-17 -0.05007434128)
(-2.623538147e-05 -1.179026218e-17 -0.05006209872)
(-2.909899105e-05 -1.486243303e-17 -0.05004753145)
(-3.194876673e-05 -1.5358903e-17 -0.05003018827)
(-3.48042527e-05 -1.592575088e-17 -0.05000947839)
(-3.768882667e-05 -1.642666182e-17 -0.04998464797)
(-4.062823844e-05 -1.66172358e-17 -0.04995475885)
(-4.364752129e-05 -1.786972296e-17 -0.04991866882)
(-4.676860753e-05 -1.854629004e-17 -0.04987500913)
(-5.000902519e-05 -1.882909793e-17 -0.04982215692)
(-5.337900032e-05 -1.996514823e-17 -0.04975820205)
(-5.687789326e-05 -2.08371639e-17 -0.04968090869)
(-6.049394865e-05 -2.153004827e-17 -0.04958766838)
(-6.420362584e-05 -2.209558192e-17 -0.04947544933)
(-6.796957241e-05 -2.255145392e-17 -0.04934074411)
(-7.174168271e-05 -2.286621311e-17 -0.04917951324)
(-7.545608042e-05 -2.309561762e-17 -0.04898713155)
(-7.903683706e-05 -2.32748363e-17 -0.04875833498)
(-8.239713274e-05 -2.34518118e-17 -0.04848717351)
(-8.544139057e-05 -2.371572882e-17 -0.04816697029)
(-8.806839321e-05 -2.337996568e-17 -0.04779029053)
(-9.017506107e-05 -2.315737627e-17 -0.04734892156)
(-9.16604321e-05 -2.271511975e-17 -0.04683386714)
(-9.243033114e-05 -2.196843114e-17 -0.04623535634)
(-9.240190955e-05 -2.161902108e-17 -0.0455428686)
(-9.15079949e-05 -2.119540076e-17 -0.04474517598)
(-8.97021286e-05 -2.069253368e-17 -0.04383039946)
(-8.696097167e-05 -2.01068629e-17 -0.04278608092)
(-8.328768284e-05 -1.9432931e-17 -0.04159926421)
(-7.871414135e-05 -1.866445493e-17 -0.04025659498)
(-7.33013834e-05 -1.779953296e-17 -0.03874442423)
(-6.714005716e-05 -1.683071305e-17 -0.03704891211)
(-6.03500519e-05 -1.574958817e-17 -0.03515614328)
(-5.307823678e-05 -1.456253987e-17 -0.03305224202)
(-4.549642822e-05 -1.327158574e-17 -0.03072347756)
(-3.779854802e-05 -1.186943647e-17 -0.0281563644)
(-3.019758601e-05 -1.034881629e-17 -0.02533776288)