/*--------------------------------*- C++ -*----------------------------------*\
  =========                 |
  \\      /  F ield         | OpenFOAM: The Open Source CFD Toolbox
   \\    /   O peration     | Website:  https://openfoam.org
    \\  /    A nd           | Version:  7
     \\/     M anipulation  |
\*---------------------------------------------------------------------------*/
FoamFile
{
    version     2.0;
    format      ascii;
    class       volVectorField;
    location    "0.0027";
    object      grad(generalizedNewtonian:nu);
}
// * * * * * * * * * * * * * * * * * * * * * * * * * * * * * * * * * * * * * //

dimensions      [0 1 -1 0 0 0 0];

internalField   nonuniform List<vector> 
1167
(
(-801.2531153 0 8223.893924)
(-79.21547698 0 8166.043474)
(-560.223277 0 8232.982624)
(-1452.377568 0 8224.555099)
(-1588.734949 -1.057871818e-10 8203.556643)
(-1889.21869 0 8187.986421)
(-2189.661526 0 8168.921096)
(-2456.449747 0 8143.528099)
(-2698.243074 6.259201738e-11 8112.127082)
(-2915.314516 0 8074.265403)
(-3106.053725 -2.678053401e-11 8029.447321)
(-3270.84531 -5.027765715e-11 7977.56882)
(-3410.960783 0 7918.96629)
(-3526.456974 0 7853.239398)
(-3620.467598 2.166252817e-11 7781.108297)
(-3695.574543 2.083210746e-11 7703.674902)
(-3755.120129 0 7621.607509)
(-3803.514803 -1.949692584e-11 7536.126843)
(-782.5700569 0 8026.915503)
(-81.2374349 -3.045264853e-10 7968.960233)
(-541.2724774 0 8031.796221)
(-1406.5637 -1.378991513e-10 8021.158298)
(-1539.084919 -1.102767305e-10 7997.33074)
(-1827.230617 0 7978.229412)
(-2116.905099 0 7954.367528)
(-2373.15594 0 7924.363993)
(-2603.881542 0 7887.994711)
(-2810.292913 3.001169709e-11 7844.957801)
(-2991.606446 0 7795.119505)
(-3147.73754 0 7738.682968)
(-3278.734684 2.478601829e-11 7674.842891)
(-3386.737169 2.359361561e-11 7604.394245)
(-3474.145532 0 7528.430557)
(-3543.714614 0 7447.03839)
(-3598.4113 2.097043838e-11 7361.83624)
(-3642.125308 0 7273.60607)
(-3679.773298 0 7183.896515)
(-3715.313925 1.927129394e-11 7094.533378)
(-3753.182011 0 7006.843489)
(-3798.622827 0 6922.675884)
(-3857.279686 -3.626906667e-11 6844.129983)
(-3934.327539 -1.784476378e-11 6773.11575)
(-4035.42009 0 6711.930177)
(-4166.871868 0 6662.955568)
(-4334.976287 8.588113984e-12 6628.562389)
(-4546.969984 0 6611.70948)
(-4810.478944 0 6615.434117)
(-5133.076084 0 6642.62743)
(-5522.573542 1.664026987e-11 6696.742449)
(-5985.436979 0 6780.460392)
(-6526.211296 -1.648715847e-11 6895.521265)
(-7144.61504 0 7041.539297)
(-7830.229125 -8.197842814e-12 7213.775946)
(-8558.580393 0 7401.133618)
(-9287.135482 -1.635783928e-11 7583.856459)
(-9952.33326 0 7732.828968)
(-10478.01525 8.183684821e-12 7813.130559)
(-10792.98186 0 7792.041534)
(-10851.12454 -4.104840013e-12 7649.487833)
(-10646.20224 4.115006894e-12 7383.918119)
(-10212.05524 4.127479016e-12 7013.502696)
(-9608.406149 -4.14216564e-12 6568.377241)
(-8902.64906 -4.158985337e-12 6082.278125)
(-8155.534515 2.08893289e-12 5585.595834)
(-7412.996845 0 5101.027724)
(-6707.790336 4.22155725e-12 4644.764356)
(-6065.941689 0 4230.080399)
(-5503.484642 0 3865.050454)
(-762.5560243 0 7812.423003)
(-80.81578283 0 7754.449774)
(-520.5199746 0 7814.190241)
(-1357.853005 0 7802.580977)
(-1485.822061 0 7776.190429)
(-1761.377719 0 7754.760968)
(-2038.692273 0 7728.159774)
(-2283.85625 0 7694.637239)
(-2503.728468 0 7654.742751)
(-2699.774765 0 7608.313116)
(-2871.28747 0 7555.13975)
(-3017.508541 0 7494.67859)
(-3140.094057 -2.586072461e-11 7427.537088)
(-3241.02981 0 7354.476475)
(-3321.909039 0 7275.526856)
(-3385.775226 0 7192.000333)
(-3436.233847 0 7104.690896)
(-3476.450651 0 7015.0058)
(-3510.672662 2.061904649e-11 6924.252)
(-3544.066304 0 6834.168493)
(-3580.500053 1.965858961e-11 6746.071168)
(-3624.481815 0 6661.880384)
(-3681.273588 0 6583.476611)
(-3756.299778 0 6512.823107)
(-3855.17593 0 6452.097853)
(-3983.629275 -9.061181025e-12 6403.506353)
(-4147.771858 -1.792097846e-11 6369.383615)
(-4354.341174 0 6352.637647)
(-4610.010542 0 6355.87588)
(-4922.321941 8.734520484e-12 6382.149502)
(-5299.066031 0 6434.631438)
(-5746.296524 0 6515.747592)
(-6267.491357 0 6627.194286)
(-6861.81823 -8.573422501e-12 6768.395835)
(-7520.033699 -8.553296169e-12 6934.884827)
(-8218.757813 0 7116.104025)
(-8917.293595 0 7293.585674)
(-9556.584072 0 7439.813183)
(-10064.9117 0 7522.148299)
(-10375.26631 -4.274727285e-12 7509.639721)
(-10443.70798 -4.282823311e-12 7382.836563)
(-10262.769 0 7139.360426)
(-9862.73579 4.306443938e-12 6795.34051)
(-9298.274862 0 6378.188307)
(-8632.768384 0 5919.696961)
(-7923.802162 0 5448.558009)
(-7215.507915 0 4986.64942)
(-6540.171406 2.20230067e-12 4550.026001)
(-5923.671788 -2.215187284e-12 4151.958482)
(-5381.53742 -2.229034665e-12 3800.283855)
(-741.1686334 0 7580.533329)
(-79.75666696 0 7523.27857)
(-499.1037833 1.023055964e-10 7580.902076)
(-1306.920361 -7.512753673e-11 7567.9828)
(-1429.653305 6.007882608e-11 7540.772558)
(-1692.993259 0 7517.379537)
(-1957.639316 0 7489.178118)
(-2190.952872 0 7453.97165)
(-2399.662935 0 7412.089767)
(-2584.95698 3.270077947e-11 7363.477293)
(-2745.898844 -3.041848781e-11 7307.989808)
(-2883.129965 2.855376785e-11 7245.661684)
(-2997.795317 2.700687387e-11 7177.269689)
(-3090.989171 0 7102.341934)
(-3165.51657 0 7022.373428)
(-3224.293187 0 6937.727981)
(-3270.089436 0 6849.8864)
(-3306.968855 2.214545088e-11 6759.771307)
(-3339.132788 0 6669.095062)
(-3370.157698 0 6579.219091)
(-3404.620966 0 6491.581255)
(-3447.53305 0 6408.09041)
(-3503.517756 0 6330.503335)
(-3577.37857 0 6260.803758)
(-3674.304787 0 6200.934327)
(-3799.835466 -1.892554649e-11 6153.075129)
(-3960.125812 0 6119.584156)
(-4161.678724 0 6103.100153)
(-4410.852492 0 6106.138225)
(-4714.426156 0 6131.79184)
(-5079.090362 0 6182.737296)
(-5511.062332 9.019404784e-12 6261.518332)
(-6014.132824 0 6369.542149)
(-6586.57072 0 6506.292746)
(-7218.960085 -8.932378896e-12 6667.452233)
(-7890.015179 -1.783729949e-11 6843.057621)
(-8560.832205 0 7015.603924)
(-9175.869097 0 7159.447939)
(-9668.342313 0 7243.720698)
(-9974.740601 -4.464183558e-12 7239.377673)
(-10052.92733 0 7127.19635)
(-9894.611605 0 6904.398804)
(-9526.607529 -4.49730586e-12 6584.958923)
(-8999.205567 6.769962658e-12 6194.035774)
(-8371.86269 2.265817601e-12 5761.472136)
(-7699.044322 0 5314.333893)
(-7023.352133 0 4873.805909)
(-6376.533231 0 4455.772086)
(-5784.243126 0 4073.439236)
(-5261.43483 1.163912826e-12 3734.364191)
(-719.6836856 0 7332.35523)
(-78.35712595 0 7276.369256)
(-476.4738614 0 7331.435155)
(-1255.169221 0 7317.965126)
(-1372.296315 0 7291.004558)
(-1622.581282 0 7266.871969)
(-1875.105656 4.596497294e-11 7237.843241)
(-2096.552624 -4.09592104e-11 7202.016672)
(-2293.47641 0 7159.453895)
(-2467.799436 3.418294001e-11 7110.268157)
(-2618.988243 3.179720354e-11 7054.407969)
(-2747.176675 0 6992.01653)
(-2852.98054 0 6922.898028)
(-2939.035689 -2.687282726e-11 6848.125615)
(-3007.261642 -2.572046586e-11 6768.153752)
(-3060.531917 0 6684.051833)
(-3102.53133 0 6596.72005)
(-3135.84004 0 6507.486601)
(-3165.232584 -4.501772134e-11 6417.823468)
(-3194.807769 -2.194975775e-11 6329.092604)
(-3228.128801 0 6242.883405)
(-3269.646252 0 6160.772926)
(-3324.330951 0 6084.66254)
(-3397.023014 0 6016.357043)
(-3492.599081 0 5957.775722)
(-3616.179737 0 5911.092781)
(-3773.272282 9.781752279e-12 5878.561391)
(-3969.895279 0 5862.560723)
(-4212.548898 -1.920948457e-11 5865.724125)
(-4507.915351 0 5890.822633)
(-4862.161754 0 5940.520179)
(-5280.234119 0 6017.123899)
(-5765.707666 1.877866303e-11 6121.996305)
(-6317.803134 9.359209277e-12 6254.620444)
(-6926.521002 0 6410.771095)
(-7571.428878 4.661443454e-12 6581.154178)
(-8216.721043 0 6749.193454)
(-8809.480218 -9.315216605e-12 6890.920924)
(-9287.169077 0 6977.018402)
(-9590.01197 9.3330447e-12 6980.216585)
(-9677.445803 0 6881.648835)
(-9540.524887 0 6678.127909)
(-9202.513988 4.701145955e-12 6381.507948)
(-8710.06289 0 6015.151766)
(-8118.849159 0 5606.892892)
(-7480.373217 0 5182.345411)
(-6835.797045 0 4762.025388)
(-6216.279472 0 4361.629906)
(-5647.162118 0 3994.223924)
(-5142.792051 -1.216667089e-12 3667.067305)
(-697.777233 0 7068.345311)
(-76.21705871 -1.814684234e-10 7013.452478)
(-453.7725523 0 7066.098908)
(-1203.582676 0 7053.523055)
(-1315.155588 0 7026.795386)
(-1552.224405 0 7003.459154)
(-1792.10824 0 6974.918315)
(-2001.889871 4.285867184e-11 6939.492391)
(-2187.623946 3.888174779e-11 6897.606403)
(-2351.270376 0 6849.378653)
(-2492.223736 0 6794.338758)
(-2610.655247 0 6732.583801)
(-2708.470446 2.954015409e-11 6664.715074)
(-2787.134325 -5.623808049e-11 6591.294031)
(-2849.192212 0 6512.747039)
(-2897.31698 0 6430.346773)
(-2934.536714 0 6344.84063)
(-2965.029645 0 6257.517528)
(-2991.949599 0 6169.951467)
(-3019.157633 2.296766613e-11 6083.333833)
(-3050.983452 0 5999.235049)
(-3091.769406 -1.10033343e-11 5919.247211)
(-3145.707396 1.080643337e-11 5845.290685)
(-3217.042001 1.063375866e-11 5778.891671)
(-3310.874183 0 5722.111462)
(-3432.302521 -1.03503938e-11 5676.978145)
(-3586.511335 0 5645.627729)
(-3779.202983 0 5630.44975)
(-4016.080882 0 5633.946655)
(-4303.32019 0 5658.666378)
(-4647.261832 -9.91599634e-12 5707.308364)
(-5052.837498 0 5781.929963)
(-5522.37902 0 5883.913331)
(-6054.856571 0 6012.672282)
(-6641.735087 -4.885123886e-12 6164.196413)
(-7262.675309 0 6329.72644)
(-7883.99389 0 6493.637222)
(-8456.133677 4.873602414e-12 6633.195583)
(-8920.20461 4.876687075e-12 6721.101869)
(-9219.804459 0 6731.159155)
(-9315.91302 0 6645.268564)
(-9198.966861 4.904294635e-12 6459.52927)
(-8889.218428 2.459579559e-12 6184.16743)
(-8429.810944 0 5840.814562)
(-7872.748283 2.478354267e-12 5455.323483)
(-7266.918409 0 5052.047826)
(-6652.110888 2.50204558e-12 4650.873752)
(-6058.80242 0 4267.238162)
(-5511.905546 -1.265180605e-12 3914.008753)
(-5025.181049 -1.273089373e-12 3598.150095)
(-675.4224057 5.562305442e-10 6788.36203)
(-73.68848673 0 6735.012152)
(-432.147881 1.172146256e-10 6786.125863)
(-1152.891192 8.607589806e-11 6774.733619)
(-1259.091411 -6.883413373e-11 6749.179963)
(-1483.913674 0 6727.016294)
(-1710.993037 0 6700.161022)
(-1909.07614 -4.489341903e-11 6666.553579)
(-2083.745774 0 6626.525978)
(-2236.511745 0 6580.088023)
(-2367.14289 3.485138411e-11 6527.059849)
(-2476.782573 3.27149181e-11 6467.824744)
(-2566.293548 0 6402.51722)
(-2637.646208 0 6331.527651)
(-2693.348091 0 6255.896619)
(-2736.290498 0 6176.208395)
(-2769.253425 0 6093.663188)
(-2795.789387 0 6009.398947)
(-2820.258166 -2.467087883e-11 5924.820964)
(-2845.752579 0 5841.240495)
(-2875.739134 0 5760.03513)
(-2914.917203 0 5682.949601)
(-2967.670982 1.131947685e-11 5611.667439)
(-3037.987704 0 5547.745242)
(-3130.515798 2.196038419e-11 5493.276178)
(-3249.754059 -1.084178645e-11 5450.036909)
(-3400.772592 1.072130774e-11 5420.194079)
(-3589.20957 -1.061698407e-11 5406.104825)
(-3820.6908 -1.052729578e-11 5410.05935)
(-4100.902533 0 5434.692244)
(-4435.09876 -1.03867657e-11 5482.404016)
(-4828.257344 0 5555.30837)
(-5283.243964 1.029119437e-11 5654.633995)
(-5797.752752 5.129089408e-12 5779.77091)
(-6363.708808 0 5926.972989)
(-6962.561579 -5.109183818e-12 6087.923131)
(-7561.664201 0 6247.988593)
(-8114.706639 5.10498028e-12 6385.509282)
(-8566.25202 0 6475.042231)
(-8862.797905 -5.114750486e-12 6491.31913)
(-8967.125168 0 6417.160251)
(-8868.683007 2.568564831e-12 6247.767463)
(-8585.497895 2.576349918e-12 5992.200383)
(-8157.302602 2.585517174e-12 5670.321003)
(-7632.58745 0 5306.174574)
(-7057.870916 0 4922.960149)
(-6471.575244 2.620832023e-12 4539.946979)
(-5903.462809 -2.63507302e-12 4172.249185)
(-5377.960091 0 3832.529414)
(-4908.192109 0 3527.419251)
(-653.5342685 0 6493.591389)
(-72.26403572 0 6442.336929)
(-411.9804942 0 6492.239039)
(-1104.245625 0 6481.973605)
(-1204.970508 7.218153074e-11 6458.885245)
(-1418.018531 0 6438.466352)
(-1633.401994 0 6413.926486)
(-1819.973983 4.707658147e-11 6383.001029)
(-1983.433975 0 6345.928694)
(-2125.821321 0 6302.649882)
(-2247.061217 -3.654620356e-11 6253.239503)
(-2347.44999 -3.430584115e-11 6197.550311)
(-2428.587267 0 6135.743898)
(-2492.763892 0 6068.80137)
(-2542.209453 0 5996.901075)
(-2579.516622 0 5921.294243)
(-2608.03683 0 5842.671541)
(-2631.242833 0 5762.489462)
(-2652.343676 0 5681.88526)
(-2675.179125 -2.522801489e-11 5602.11021)
(-2703.617366 0 5524.600469)
(-2741.529392 0 5451.171031)
(-2792.564831 1.186994185e-11 5383.139152)
(-2861.061195 -2.336054687e-11 5322.275295)
(-2951.660373 0 5270.503616)
(-3068.685569 1.136902141e-11 5229.515282)
(-3216.967733 0 5201.569545)
(-3401.230982 1.113328687e-11 5188.780589)
(-3626.923857 0 5193.46593)
(-3900.001839 0 5218.182875)
(-4225.477992 1.089187308e-11 5265.223077)
(-4607.094038 -5.418168829e-12 5336.572365)
(-5047.610396 0 5433.42632)
(-5545.570223 0 5555.18687)
(-6092.259628 0 5698.411697)
(-6670.295514 -5.357642879e-12 5855.099353)
(-7248.803948 0 6011.408235)
(-7784.032722 1.070646996e-11 6147.056264)
(-8223.882499 0 6237.853135)
(-8517.618689 0 6259.850114)
(-8629.597102 -5.373638374e-12 6196.383893)
(-8548.402942 -2.693473883e-12 6042.009989)
(-8290.16315 5.403275105e-12 5804.853966)
(-7891.399112 0 5502.990244)
(-7397.376205 -2.722259947e-12 5158.869036)
(-6852.390009 0 4794.602257)
(-6293.484676 0 4428.849119)
(-5749.650299 -1.381608173e-12 4076.345351)
(-5244.813103 -1.389692553e-12 3749.541965)
(-4791.414441 -1.398379688e-12 3454.709621)
(-632.2828839 -6.123515639e-10 6185.220495)
(-71.56601644 2.092623209e-10 6136.135292)
(-393.2271413 1.290410247e-10 6184.303076)
(-1058.597296 0 6176.212319)
(-1154.705831 0 6155.666859)
(-1355.984568 0 6138.418309)
(-1560.043349 5.546309657e-11 6116.952434)
(-1736.049994 -4.942295179e-11 6089.550892)
(-1889.222689 0 6056.504019)
(-2021.631949 0 6017.608365)
(-2133.12757 0 5972.430581)
(-2224.549155 0 5921.19993)
(-2297.931962 0 5864.518756)
(-2354.737386 -3.242578234e-11 5802.279528)
(-2397.677111 0 5735.560248)
(-2429.722773 0 5664.887306)
(-2453.313661 -1.441031506e-11 5591.37203)
(-2472.472376 0 5516.164308)
(-2490.621221 0 5440.39964)
(-2510.565591 2.648541853e-11 5365.314052)
(-2536.361679 0 5292.343298)
(-2572.152601 0 5223.117822)
(-2621.460401 0 5158.953138)
(-2688.266112 0 5101.726065)
(-2776.429648 -1.208804146e-11 5053.050848)
(-2890.391353 -1.193567107e-11 5014.759572)
(-3035.200137 -1.18030368e-11 4989.041477)
(-3215.427553 0 4977.832981)
(-3435.839679 1.158944991e-11 4983.560062)
(-3701.605277 0 5008.534935)
(-4017.972563 5.717370488e-12 5055.076377)
(-4388.908805 0 5125.055337)
(-4815.973692 0 5219.683463)
(-5297.808387 0 5338.323528)
(-5826.50294 -5.633334722e-12 5477.694126)
(-6384.994734 0 5630.398446)
(-6944.337287 5.620331154e-12 5783.113761)
(-7463.077679 5.620048595e-12 5916.963188)
(-7891.892892 -5.623605652e-12 6008.69764)
(-8182.96877 0 6035.878367)
(-8301.821747 0 5982.043056)
(-8236.799105 0 5841.526462)
(-8002.06787 0 5621.463421)
(-7631.000253 0 5338.214071)
(-7166.126661 0 5012.882114)
(-6649.630651 0 4666.553727)
(-6117.132905 0 4317.231842)
(-5596.779221 -1.450469676e-12 3979.245937)
(-5112.01073 2.917914009e-12 3664.832224)
(-4674.510772 0 3379.853267)
(-611.7187787 0 5863.212741)
(-71.17759422 0 5816.272645)
(-377.0005016 -1.356369737e-10 5863.267342)
(-1016.563186 -9.960424528e-11 5858.052097)
(-1108.988977 7.965263324e-11 5840.32994)
(-1299.920965 0 5826.511187)
(-1492.904176 0 5809.169369)
(-1658.980975 0 5786.312884)
(-1802.468382 4.712876274e-11 5758.03348)
(-1925.001225 0 5724.061858)
(-2027.362672 -2.016444741e-11 5684.326781)
(-2110.86578 0 5639.043694)
(-2176.110655 0 5588.000318)
(-2225.855202 0 5531.803831)
(-2262.51424 0 5471.128948)
(-2288.573108 0 5406.561403)
(-2307.672444 0 5339.026144)
(-2322.46401 0 5269.729118)
(-2336.484727 0 5199.678478)
(-2353.406269 1.39196121e-11 5130.086337)
(-2376.662283 0 5062.433596)
(-2409.638479 0 4998.070016)
(-2456.085206 0 4938.43633)
(-2520.252328 1.288923265e-11 4885.313279)
(-2605.818218 1.270592325e-11 4840.228436)
(-2716.812611 0 4805.135465)
(-2857.486654 -1.240635061e-11 4781.907287)
(-3032.653537 0 4772.6331)
(-3247.416987 6.09092313e-12 4779.618089)
(-3506.302432 -6.046741421e-12 4805.118398)
(-3813.627977 0 4851.329045)
(-4173.549416 0 4920.143903)
(-4587.89122 0 5012.676559)
(-5054.432357 5.935216385e-12 5128.439448)
(-5565.978228 0 5264.214668)
(-6106.110439 5.912182199e-12 5413.064617)
(-6647.329359 0 5562.381029)
(-7150.531576 5.907318103e-12 5694.29413)
(-7569.004724 0 5786.758784)
(-7857.54533 5.918623923e-12 5818.528011)
(-7982.557807 2.964916638e-12 5773.317236)
(-7932.548062 0 5645.554033)
(-7719.859132 0 5441.26415)
(-7374.971665 0 5175.362578)
(-6937.863878 3.004025701e-12 4867.677083)
(-6448.700018 0 4538.357313)
(-5941.695065 3.03274205e-12 4204.69287)
(-5444.119398 -1.524610637e-12 3880.6239)
(-4978.860983 1.533531775e-12 3578.130271)
(-4556.858152 0 3302.674311)
(-591.8560514 0 5527.874277)
(-72.41067693 2.314968366e-10 5483.534535)
(-364.1133892 -1.427518765e-10 5529.916146)
(-979.1206177 0 5527.270569)
(-1068.059146 0 5513.488053)
(-1250.09294 0 5503.316438)
(-1433.660586 9.203423265e-11 5490.569273)
(-1590.300659 0 5472.890488)
(-1724.47907 0 5450.179855)
(-1838.449636 2.281447836e-11 5422.258193)
(-1932.683346 0 5389.18683)
(-2007.660256 -1.992121687e-11 5350.25649)
(-2065.533344 -1.884198933e-11 5305.977106)
(-2108.435452 0 5256.853506)
(-2138.801785 0 5203.100106)
(-2159.189768 0 5145.535083)
(-2172.753761 -1.594143806e-11 5084.974794)
(-2183.319584 0 5022.429566)
(-2193.363927 0 4958.996723)
(-2206.167158 -1.464977197e-11 4895.702747)
(-2225.800385 0 4834.023305)
(-2255.686411 0 4775.220487)
(-2299.141815 0 4720.810392)
(-2359.814893 0 4672.331584)
(-2441.551497 0 4631.372553)
(-2548.574281 0 4599.832135)
(-2685.002402 1.305713173e-11 4579.515289)
(-2854.942895 -6.465039562e-12 4572.536889)
(-3063.075221 0 4581.010144)
(-3314.366794 0 4607.255232)
(-3612.881774 0 4653.353287)
(-3961.876027 0 4721.208208)
(-4363.421002 0 4811.881462)
(-4815.278523 -6.246551028e-12 4924.850841)
(-5310.239533 6.23188712e-12 5057.279569)
(-5832.932899 0 5202.385112)
(-6357.042126 0 5348.479444)
(-6845.403501 0 5478.292764)
(-7253.993314 0 5571.27911)
(-7539.77775 -3.114544096e-12 5606.931311)
(-7670.457192 -3.120442785e-12 5569.523712)
(-7634.470539 3.128171472e-12 5453.461)
(-7442.315045 6.275305355e-12 5263.66423)
(-7122.135131 0 5013.895147)
(-6711.594914 -3.161603336e-12 4722.83912)
(-6248.802746 -1.587977993e-12 4409.684351)
(-5766.496606 0 4090.967154)
(-5291.206572 3.209169636e-12 3780.303094)
(-4845.172491 1.613973929e-12 3489.352432)
(-4438.458604 0 3223.096578)
(-573.767626 0 5179.874386)
(-75.43672573 -1.219835544e-10 5138.469352)
(-354.023334 0 5183.814897)
(-947.1092329 0 5184.258719)
(-1033.978991 0 5174.607675)
(-1207.558836 0 5169.129441)
(-1382.818172 0 5161.396608)
(-1531.506956 0 5149.491176)
(-1657.703419 0 5133.183915)
(-1763.822732 -4.80868976e-11 5112.166877)
(-1849.868481 0 5085.922165)
(-1917.437225 0 5054.449075)
(-1968.45591 0 5018.078392)
(-2004.722508 0 4976.606237)
(-2028.788186 0 4930.840072)
(-2043.557832 0 4881.083844)
(-2052.047081 -1.680017156e-11 4828.384416)
(-2057.334327 0 4773.521091)
(-2062.832134 0 4717.432266)
(-2071.680882 0 4661.249183)
(-2087.167511 0 4606.312476)
(-2112.728169 0 4553.798857)
(-2152.089519 -1.452822627e-11 4505.198227)
(-2208.805502 0 4461.955795)
(-2286.342501 1.409276404e-11 4425.707547)
(-2388.379872 -1.391512417e-11 4398.141139)
(-2519.182953 6.880246627e-12 4381.163645)
(-2683.182287 6.813298334e-12 4376.762208)
(-2884.509905 0 4387.084134)
(-3127.464244 0 4414.311482)
(-3416.413918 0 4460.5433)
(-3754.506802 -6.6315727e-12 4527.595193)
(-4143.084163 -1.320845508e-11 4616.585005)
(-4580.470209 0 4726.963602)
(-5059.381719 -6.567586469e-12 4856.177235)
(-5565.100051 -6.557491918e-12 4997.688658)
(-6072.667981 0 5140.502192)
(-6546.801355 6.5520969e-12 5268.164727)
(-6945.909631 -3.278121959e-12 5361.394854)
(-7228.564516 0 5400.225457)
(-7364.200612 3.28853482e-12 5369.824093)
(-7341.127153 0 5264.364043)
(-7168.162421 3.306671788e-12 5087.903479)
(-6871.359483 3.318437709e-12 4853.155069)
(-6486.206577 1.665956307e-12 4577.786346)
(-6048.820681 0 4279.970468)
(-5590.463349 0 3975.555835)
(-5136.856472 0 3677.796597)
(-4709.518272 -1.700915488e-12 3398.005594)
(-4317.817381 0 3140.796499)
(-557.2855034 0 4819.061896)
(-79.7778369 -1.287364032e-10 4780.411498)
(-347.6734842 7.938494284e-11 4824.82742)
(-920.9489352 0 4829.123113)
(-1007.173387 0 4823.548594)
(-1174.101187 0 4823.005543)
(-1342.022534 3.412042618e-11 4821.109409)
(-1483.953571 0 4815.619499)
(-1603.188292 0 4806.198827)
(-1702.030184 -2.537446247e-11 4792.510122)
(-1781.420704 0 4774.163971)
(-1842.581496 0 4751.214225)
(-1886.893629 0 4723.118076)
(-1916.934169 0 4690.470018)
(-1935.218759 0 4653.329079)
(-1944.191788 0 4612.392487)
(-1947.402081 0 4568.314957)
(-1947.829133 3.436792112e-11 4521.95289)
(-1948.100184 -1.670863437e-11 4474.058944)
(-1951.951745 1.629360439e-11 4425.784149)
(-1962.930367 7.965164253e-12 4378.327227)
(-1983.975402 1.561185847e-11 4332.865889)
(-2018.34225 0 4290.721615)
(-2069.68365 1.508749357e-11 4253.352633)
(-2141.800118 1.487292092e-11 4222.323001)
(-2238.357926 7.342723532e-12 4199.291042)
(-2362.89336 0 4186.118916)
(-2519.55411 0 4184.695757)
(-2712.999524 -7.129731181e-12 4197.197332)
(-2947.197365 0 4225.72707)
(-3225.816836 0 4272.348768)
(-3552.335722 6.998687801e-12 4338.856828)
(-3927.756386 0 4426.280348)
(-4350.335711 0 4534.30826)
(-4813.338278 0 4660.372374)
(-5302.437498 0 4798.505094)
(-5793.730253 -3.457579991e-12 4937.949308)
(-6253.906749 3.457406193e-12 5063.451725)
(-6643.440488 -6.91918893e-12 5156.488583)
(-6922.759835 0 5197.979264)
(-7062.705494 -3.470583791e-12 5173.82582)
(-7051.31862 0 5077.896196)
(-6896.205146 -6.979449554e-12 4913.652685)
(-6621.607427 0 4692.924379)
(-6260.847753 -1.758181445e-12 4432.362155)
(-5848.054222 -1.766163e-12 4149.125328)
(-5413.244952 0 3858.490789)
(-4981.315314 0 3573.32127)
(-4572.998713 0 3304.517327)
(-4196.531226 0 3056.057941)
(-542.4292758 -3.98161361e-10 4444.272688)
(-85.85430253 2.721318124e-10 4408.712136)
(-345.6892 0 4452.633163)
(-901.564379 -6.161491325e-11 4460.684832)
(-987.8935997 9.854580142e-11 4459.921455)
(-1150.254597 0 4464.4846)
(-1312.729543 3.606304501e-11 4468.778158)
(-1448.934163 0 4470.181773)
(-1562.439972 0 4468.31611)
(-1655.73897 0 4462.862743)
(-1729.475628 0 4453.307852)
(-1784.537654 2.341801684e-11 4439.097267)
(-1823.243025 0 4420.374794)
(-1847.639469 0 4397.140509)
(-1860.192241 0 4369.638587)
(-1864.049779 0 4338.238456)
(-1861.837329 -1.873966198e-11 4303.699018)
(-1856.812363 -1.816231543e-11 4266.633686)
(-1852.133352 0 4227.771178)
(-1850.817213 0 4188.25487)
(-1856.167355 0 4149.054389)
(-1871.606653 0 4111.340237)
(-1900.521098 -1.620543258e-11 4076.369797)
(-1946.043721 0 4045.591808)
(-2011.492594 -7.859849286e-12 4020.368295)
(-2100.947581 -7.760775534e-12 4002.455719)
(-2218.25819 0 3993.56674)
(-2366.966924 7.59985742e-12 3995.617088)
(-2551.233626 0 4010.663221)
(-2775.440531 0 4040.814091)
(-3043.079023 7.435062303e-12 4088.061082)
(-3357.038388 0 4154.236596)
(-3718.743699 0 4240.280017)
(-4126.171834 0 4346.075147)
(-4572.904233 7.325779317e-12 4469.107077)
(-5045.228912 3.657259732e-12 4603.816749)
(-5520.287941 -3.654434506e-12 4739.884066)
(-5966.593067 0 4863.09185)
(-6346.067528 3.656563707e-12 4955.428925)
(-6621.444976 0 4999.047526)
(-6764.748804 0 4980.297591)
(-6763.774474 0 4892.902279)
(-6625.175016 0 4739.848492)
(-6371.512737 -3.701533638e-12 4532.211125)
(-6034.015724 1.858282096e-12 4285.577196)
(-5644.861578 1.866718064e-12 4016.190672)
(-5232.737665 -3.752091846e-12 3738.725701)
(-4821.538521 0 3465.598881)
(-4431.141934 -1.897277117e-12 3207.319006)
(-4069.467025 9.545686076e-13 2967.735151)
(-530.2736284 0 4054.596758)
(-94.48758753 1.440396378e-10 4022.435785)
(-347.9351814 0 4065.799471)
(-889.7097532 -6.522566922e-11 4077.773757)
(-977.8175666 0 4082.158614)
(-1136.842887 0 4092.544163)
(-1295.628094 0 4103.349939)
(-1428.082899 3.401885275e-11 4112.19038)
(-1537.583328 0 4118.57718)
(-1626.452817 0 4121.902105)
(-1695.280886 0 4121.433235)
(-1745.801902 0 4116.998374)
(-1779.673125 0 4108.347654)
(-1799.237913 0 4095.350627)
(-1806.811038 -2.136224633e-11 4078.24601)
(-1805.365443 0 4057.341102)
(-1798.407535 0 4033.143868)
(-1788.032004 0 4006.24178)
(-1777.619607 0 3977.32021)
(-1770.857245 1.82304682e-11 3947.352936)
(-1770.572679 1.782400836e-11 3917.288408)
(-1779.698458 0 3888.134866)
(-1801.83301 0 3861.156847)
(-1840.418793 0 3837.658182)
(-1898.689717 0 3819.016586)
(-1980.083957 0 3806.877564)
(-2088.403575 1.624855484e-11 3802.868066)
(-2227.798257 0 3808.923008)
(-2401.977091 0 3827.017585)
(-2614.764358 -7.919396484e-12 3859.200699)
(-2870.136185 0 3907.470673)
(-3170.593808 0 3973.569756)
(-3517.375453 0 4058.557017)
(-3908.879416 0 4162.255674)
(-4338.765859 -7.755084476e-12 4282.529778)
(-4793.778806 0 4413.81375)
(-5252.248716 0 4546.631366)
(-5684.180911 -3.868397123e-12 4667.304294)
(-6053.272809 0 4758.708305)
(-6324.125424 0 4804.006438)
(-6469.640776 0 4789.832141)
(-6477.769782 0 4710.004169)
(-6354.452797 3.904557483e-12 4567.204138)
(-6120.597526 -1.959225433e-12 4371.738702)
(-5805.409281 1.9671811e-12 4138.187087)
(-5439.494425 0 3882.068114)
(-5050.369133 0 3617.502684)
(-4661.11192 -1.99677731e-12 3356.496165)
(-4290.67845 0 3109.034956)
(-3945.024563 0 2877.852205)
(-520.8311451 0 3648.134826)
(-105.1767016 0 3619.307515)
(-354.8227006 0 3661.885224)
(-885.9044898 -6.916336905e-11 3678.492803)
(-977.7337169 0 3688.049939)
(-1135.532941 -4.652922477e-11 3704.642058)
(-1292.29073 -4.048113614e-11 3722.639384)
(-1422.780278 0 3739.495773)
(-1529.787161 0 3754.57964)
(-1615.609546 0 3767.229475)
(-1681.505679 0 3776.874039)
(-1728.602214 0 3783.020987)
(-1758.71112 0 3785.106955)
(-1774.22248 0 3783.323111)
(-1777.726402 0 3777.405882)
(-1771.839583 0 3767.866828)
(-1759.714663 -2.103546181e-11 3754.961014)
(-1744.5233 -1.019369227e-11 3739.114113)
(-1728.815269 1.98234481e-11 3721.081539)
(-1715.940833 0 3701.591829)
(-1709.244927 9.450025469e-12 3681.543685)
(-1711.8362 0 3661.84391)
(-1726.847272 -9.095381782e-12 3643.754938)
(-1757.354639 0 3628.333525)
(-1806.983147 0 3617.035309)
(-1879.391754 0 3611.346826)
(-1977.875379 8.614743251e-12 3612.903581)
(-2106.315096 0 3623.511025)
(-2268.896454 0 3645.141561)
(-2469.154971 0 3679.754976)
(-2710.650441 0 3729.367388)
(-2996.382063 0 3795.646451)
(-3327.125767 0 3879.738737)
(-3701.456523 0 3981.449304)
(-4113.392925 -4.111631007e-12 4098.895084)
(-4550.203565 -8.210622791e-12 4226.73029)
(-4991.345044 0 4356.179768)
(-5407.771675 -4.101933832e-12 4473.902028)
(-5765.379538 0 4563.991853)
(-6030.38645 -4.109784355e-12 4610.298487)
(-6176.508854 0 4599.869095)
(-6192.103236 2.063883194e-12 4526.730283)
(-6082.423726 -6.21041577e-12 4393.311213)
(-5866.752292 4.155009344e-12 4209.094795)
(-5572.381298 -4.171881206e-12 3987.79134)
(-5228.140202 0 3744.121357)
(-4859.995612 0 3491.532903)
(-4489.731249 0 3241.496917)
(-4135.381932 0 3003.664574)
(-3804.054378 -1.071513004e-12 2781.53469)
(-514.4241493 -4.747617008e-10 3220.852063)
(-117.8725985 1.622429682e-10 3195.499895)
(-367.0211034 0 3237.652295)
(-891.2674622 0 3259.166342)
(-988.1960261 -5.875227593e-11 3274.470104)
(-1147.345801 0 3297.563249)
(-1304.339621 4.300103993e-11 3323.23205)
(-1434.60376 0 3348.717132)
(-1541.048828 -3.476246749e-11 3373.296305)
(-1626.060159 0 3396.263135)
(-1690.428678 0 3416.847748)
(-1735.357068 2.792329613e-11 3434.187345)
(-1763.111605 0 3448.196063)
(-1775.779314 0 3458.35679)
(-1775.803224 0 3464.790889)
(-1766.420861 0 3467.512389)
(-1750.098628 0 3466.936872)
(-1729.77948 0 3463.265958)
(-1708.867098 0 3457.101208)
(-1690.339495 0 3449.196129)
(-1676.930675 1.003827862e-11 3440.212444)
(-1672.030816 0 3431.071937)
(-1679.088282 9.66155874e-12 3422.841969)
(-1701.055693 9.507177775e-12 3416.568149)
(-1741.108174 0 3413.592404)
(-1802.837382 -9.253833687e-12 3415.305786)
(-1890.068655 0 3423.294501)
(-2006.331498 0 3439.312123)
(-2155.445491 0 3465.242584)
(-2341.417485 0 3503.013319)
(-2567.440519 -4.432729027e-12 3554.559548)
(-2836.440059 4.410127431e-12 3621.615701)
(-3149.516263 0 3705.216223)
(-3505.17279 0 3805.444842)
(-3897.697255 4.367575258e-12 3920.313691)
(-4315.087808 0 4045.06807)
(-4737.664167 4.357493519e-12 4171.185879)
(-5137.799509 0 4286.096161)
(-5483.090254 0 4374.8077)
(-5740.986314 0 4421.67143)
(-5886.344381 2.186940873e-12 4414.326116)
(-5907.961704 2.192357534e-12 4347.103873)
(-5810.440306 4.398004628e-12 4222.122756)
(-5611.630618 -2.206826919e-12 4048.195135)
(-5337.4248 -2.215788004e-12 3838.405509)
(-5015.390852 2.225846941e-12 3606.888197)
(-4670.652661 2.23696933e-12 3366.674869)
(-4324.449155 -1.124562252e-12 3128.905295)
(-3993.683905 0 2902.504394)
(-3680.81819 2.276426892e-12 2688.316876)
(-511.6921461 -5.052641396e-10 2767.366805)
(-133.5581334 0 2745.856002)
(-384.9568656 0 2787.803087)
(-906.8993547 0 2814.442675)
(-1010.912045 6.252698588e-11 2836.148773)
(-1173.469606 0 2866.460091)
(-1333.252467 0 2900.443217)
(-1465.916506 -2.038995789e-11 2935.394283)
(-1574.059241 0 2970.424786)
(-1659.973079 0 3004.532852)
(-1724.482089 0 3036.799786)
(-1769.305339 0 3066.648945)
(-1796.109867 0 3093.47439)
(-1807.217146 0 3116.850741)
(-1805.229914 0 3136.67449)
(-1792.873287 0 3152.982741)
(-1773.248902 0 3165.813581)
(-1748.82587 0 3175.506667)
(-1722.761468 0 3182.467894)
(-1698.399069 0 3187.284584)
(-1678.61778 0 3190.535141)
(-1666.35311 0 3193.120524)
(-1664.736164 0 3195.85501)
(-1677.186344 0 3199.789491)
(-1707.084501 -1.994819367e-11 3206.1286)
(-1757.466027 0 3216.200684)
(-1831.986986 4.869466839e-12 3231.469466)
(-1934.711636 -4.822084439e-12 3253.637469)
(-2069.127559 0 3284.495687)
(-2238.975456 0 3325.935308)
(-2447.937167 4.717522492e-12 3379.811254)
(-2698.497967 -4.693468807e-12 3447.887547)
(-2991.947371 0 3531.138894)
(-3326.992917 0 3629.815642)
(-3698.18736 0 3742.027431)
(-4094.242397 0 3863.477607)