/*--------------------------------*- C++ -*----------------------------------*\
  =========                 |
  \\      /  F ield         | OpenFOAM: The Open Source CFD Toolbox
   \\    /   O peration     | Website:  https://openfoam.org
    \\  /    A nd           | Version:  7
     \\/     M anipulation  |
\*---------------------------------------------------------------------------*/
FoamFile
{
    version     2.0;
    format      ascii;
    class       volTensorField;
    location    "0.0027";
    object      grad(U);
}
// * * * * * * * * * * * * * * * * * * * * * * * * * * * * * * * * * * * * * //

dimensions      [0 0 -1 0 0 0 0];

internalField   nonuniform List<tensor> 
1167
(
(-10.88269686 -6.822518326e-14 0.637131653 1.043503923e-13 -17.89266115 0 0.5268579821 -4.582553545e-14 29.60509733)
(-14.41349051 -1.685503649e-14 1.478149182 1.4264097e-13 -15.59928877 0 1.274272899 -2.473928901e-13 29.53298307)
(-14.14040043 -3.650648526e-14 2.400765488 4.397957754e-14 -14.87007025 -7.036732406e-13 2.011401886 -1.670555393e-14 29.3880427)
(-14.32767436 -7.72079938e-14 3.318865002 6.459230854e-14 -14.72040624 0 2.763201363 -3.194417015e-14 29.17377199)
(-14.16021545 -1.511280044e-13 4.21224442 1.033077947e-13 -14.62044995 4.132311789e-13 3.479992758 -4.654444264e-14 28.89535787)
(-13.90859186 -7.129183745e-14 5.085815172 4.345407235e-14 -14.51625922 -3.476325788e-13 4.159781665 4.671182699e-14 28.55684456)
(-13.62045766 4.781092776e-14 5.94294429 3.780570658e-14 -14.40547736 0 4.801649604 9.148987396e-14 28.16144386)
(-13.28941434 1.579149355e-15 6.783410598 6.737703913e-14 -14.28568388 0 5.402180271 1.299954516e-13 27.71230407)
(-12.9171411 4.315760476e-14 7.607938391 3.056250849e-14 -14.15558531 0 5.958765326 9.872643737e-14 27.21239539)
(-12.5072953 5.06566162e-14 8.417937382 5.623021679e-14 -14.0149663 0 6.469578271 6.75758203e-14 26.66436219)
(-12.06232665 -1.920601042e-14 9.214952032 7.845859574e-14 -13.86402543 2.09222922e-13 6.933147682 4.880750538e-14 26.07057964)
(-11.58409319 -7.307352971e-14 10.00056445 2.454963728e-14 -13.7031092 1.963970982e-13 7.348297377 7.200688625e-14 25.43320679)
(-11.07426223 -1.029465677e-13 10.77637861 9.287866551e-14 -13.53262858 0 7.714173677 1.064921493e-13 24.75424005)
(-10.5342817 -6.432207052e-14 11.54397987 6.630785256e-14 -13.35302203 0 8.030172097 9.219017125e-14 24.03547987)
(-9.965422928 -2.693933175e-14 12.30487377 4.230962532e-14 -13.16472403 0 8.295877313 9.708622106e-14 23.27858326)
(-9.368876988 -1.788034126e-15 13.06044085 0 -12.96816062 -8.137541976e-14 8.511118848 8.846595602e-14 22.48514429)
(-8.745742828 1.0935323e-14 13.8119582 7.858084741e-14 -12.76374422 0 8.675892679 7.805064724e-14 21.65662588)
(-8.097048913 -3.378904533e-14 14.56068455 1.142397999e-13 -12.55187157 1.523197332e-13 8.790350437 8.543919219e-14 20.79443439)
(-11.62326781 2.74974951e-13 0.6865240589 0 -19.10304718 0 0.5695558427 -2.030873165e-13 31.61442164)
(-15.39324864 -3.608457165e-14 1.591426651 -1.858682161e-13 -16.65840916 1.189556583e-12 1.378767341 -1.875692887e-13 31.53582713)
(-15.09632573 -1.644905994e-13 2.584263958 0 -15.87981385 0 2.175870889 -6.814055853e-14 31.37759746)
(-15.29194076 -1.265463432e-13 3.572995158 3.366678498e-14 -15.7178289 5.386685597e-13 2.988435338 -2.057522919e-14 31.14371195)
(-15.10966692 -2.336834862e-13 4.535376994 8.076908975e-14 -15.60953172 4.307684787e-13 3.762928928 -2.500809608e-14 30.83996533)
(-14.83524747 -1.758845681e-13 5.47660531 4.529823887e-14 -15.49640126 0 4.496845113 -2.693349121e-14 30.47072221)
(-14.52100881 -8.424691349e-14 6.400465103 7.882031924e-14 -15.37587601 0 5.189110244 5.008622342e-14 30.0396447)
(-14.16048176 -3.600991553e-15 7.30681125 3.511824143e-14 -15.24547532 0 5.836040791 9.140903539e-14 29.55028937)
(-13.75539855 6.048339154e-14 8.196358061 6.371912854e-14 -15.10385454 0 6.434814822 6.480428475e-14 29.00594787)
(-13.30976784 4.207343551e-14 9.070606817 2.930829794e-14 -14.95080984 -2.344663835e-13 6.983433431 1.002357696e-13 28.40960655)
(-12.82637205 -1.416386518e-14 9.931191908 1.090511123e-13 -14.78658432 0 7.480324199 1.092664459e-13 27.76399421)
(-12.30737557 -9.027005387e-14 10.77974816 7.677453087e-14 -14.61158233 0 7.924303985 1.084327636e-13 27.07161028)
(-11.75465262 -8.079396297e-14 11.61796004 4.841019197e-14 -14.42627977 0 8.314492279 7.777267317e-14 26.33471045)
(-11.16983844 -3.118586658e-14 12.44747379 4.608128048e-14 -14.23117118 -1.843251219e-13 8.650270221 5.942596665e-14 25.55538154)
(-10.55445643 -2.554140296e-14 13.2697668 8.821044395e-14 -14.02674984 0 8.93133385 5.821371801e-14 24.73559043)
(-9.909901113 -2.008888637e-14 14.08624892 4.241447349e-14 -13.81350132 0 9.157594709 6.026307277e-14 23.87716252)
(-9.23743561 4.919746248e-15 14.89822072 4.095788746e-14 -13.59189323 -1.638315498e-13 9.329166143 7.367634899e-14 22.98181752)
(-8.538238907 -4.30298701e-15 15.70688082 3.969602431e-14 -13.36237442 0 9.446341453 7.980085275e-14 22.05116344)
(-7.81338488 -2.796846558e-14 16.51347138 7.719598048e-14 -13.12537389 0 9.509544792 7.383584489e-14 21.08671459)
(-7.063820518 5.252586182e-14 17.31926371 3.763924598e-14 -12.88129911 -7.527849196e-14 9.519328017 4.021474593e-14 20.08984917)
(-6.290330588 9.131732455e-14 18.12565594 7.360011046e-14 -12.63053435 7.360011046e-14 9.4763194 3.289836271e-14 19.06177044)
(-5.493487282 6.448619319e-14 18.93433543 3.606437019e-14 -12.37343767 0 9.381158191 2.119055242e-14 18.0034534)
(-4.673600873 1.438897298e-14 19.74740594 1.062570313e-13 -12.11033728 2.125140625e-13 9.234460661 1.315341634e-14 16.91557835)
(-3.830614927 -4.176239996e-14 20.56754969 6.97061085e-14 -11.84152747 6.97061085e-14 9.036747028 2.286483522e-14 15.79843843)
(-2.96399488 -3.777969475e-14 21.39819765 6.871475564e-14 -11.56726076 0 8.788360671 2.633024771e-14 14.65182961)
(-2.072626762 -3.80654517e-14 22.24378719 3.39243016e-14 -11.28774041 0 8.489389489 2.504803681e-14 13.47490118)
(-1.154626875 -1.081114813e-15 23.11006357 0 -11.0031114 -6.70946405e-14 8.139539662 1.710151266e-14 12.26597852)
(-0.2071256419 4.097459079e-14 24.00442594 3.322088754e-14 -10.71344707 0 7.737991815 7.271483693e-15 11.02234278)
(0.7739764842 3.515985706e-14 24.93642711 3.294025035e-14 -10.41873474 0 7.283245806 2.405007017e-14 9.739932057)
(1.794397994 2.874138742e-14 25.91840253 3.270131191e-14 -10.11885754 0 6.772871756 2.069822123e-14 8.412969772)
(2.861950507 5.636810169e-14 26.9662658 1.625026355e-14 -9.813569708 -6.50010542e-14 6.203226722 2.430160791e-15 7.033480106)
(3.987125307 8.819446691e-14 28.10055679 3.23348135e-14 -9.502467171 0 5.569089495 -2.47917947e-14 5.590628271)
(5.183880279 4.100657396e-14 29.34781415 8.050370347e-14 -9.184950093 9.660444417e-14 4.863159153 -2.024332057e-14 4.069905949)
(6.470629657 1.473256065e-15 30.7422974 3.20981747e-14 -8.860175918 0 4.075459559 -1.461751257e-14 2.452097954)
(7.871390365 9.850770898e-15 32.32783055 6.404564698e-14 -8.527001029 6.404564698e-14 3.19261683 -2.26735017e-14 0.7120876317)
(9.416897662 2.794567918e-14 34.15955191 3.197360389e-14 -8.183912738 0 2.197085992 -2.537295792e-14 -1.182363316)
(11.14550917 -3.900012798e-15 36.30517407 4.792335726e-14 -7.828957383 9.584671452e-14 1.066454892 -7.928384621e-15 -3.271603533)
(13.10342799 -5.394226418e-14 38.84464361 3.194729816e-14 -7.459671433 0 -0.2269161801 2.612168811e-14 -5.604342242)
(15.34364992 -1.546865779e-14 41.86731541 0 -7.073035004 -6.393503767e-14 -1.715675047 1.633725049e-14 -8.23663665)
(17.92353621 2.181825345e-14 45.46661004 3.200844058e-14 -6.66546884 0 -3.436431145 2.64290674e-16 -11.2293763)
(20.9011431 5.386600359e-15 49.73280462 4.810359391e-14 -6.232886803 3.20690626e-14 -5.428003563 2.280908593e-14 -14.64459204)
(24.33117524 2.349916581e-14 54.74562701 1.607424568e-14 -5.770811188 -3.214849136e-14 -7.72926401 3.203780663e-14 -18.54131612)
(28.2617321 1.057282318e-13 60.56884131 -1.612296491e-14 -5.274529816 0 -10.37722444 -4.871644093e-15 -22.97209442)
(32.73228356 1.14763447e-13 67.24799798 8.090167265e-15 -4.739267959 1.618033453e-14 -13.40561191 -1.125892219e-14 -27.98101548)
(37.77201165 7.797780202e-14 74.81166619 1.624603647e-14 -4.160351384 1.624603647e-14 -16.84352361 1.456819524e-15 -33.60340383)
(43.39881925 7.207640834e-14 83.27518767 1.63197882e-14 -3.533369037 0 -20.7143769 -2.425496344e-15 -39.86715239)
(49.63290797 1.083865707e-13 92.63743315 8.200668566e-15 -2.854308174 -8.200668566e-15 -25.04294817 -2.656180542e-14 -46.79031712)
(56.54482182 1.932475548e-13 102.8599227 0 -2.119308394 -8.245229005e-15 -29.88271336 -7.954645956e-14 -54.36849136)
(64.25787889 2.269731448e-13 113.8784959 0 -1.323575788 0 -35.31989934 -1.083361304e-13 -62.57978186)
(71.84830792 1.565633563e-13 126.2797606 1.043164853e-15 -0.4612615716 2.086329707e-15 -40.83988485 -9.724459291e-14 -71.77491963)
(-12.4417718 -9.31572385e-14 0.7418970411 -7.377210939e-13 -20.44070073 3.631857693e-12 0.6160956421 -6.026748086e-14 33.83484719)
(-16.4759455 -2.042676133e-13 1.718511755 -2.327128159e-13 -17.82894927 -1.241135018e-12 1.492552414 2.077625606e-13 33.74886615)
(-16.15229865 -2.313684746e-13 2.790036781 0 -16.99568766 0 2.354955716 1.164815696e-13 33.57551812)
(-16.35668814 -1.11862987e-13 3.857745844 7.025311175e-14 -16.81990933 0 3.23376687 1.221847096e-13 33.31944042)
(-16.1575505 -1.38476873e-13 4.897257881 -2.809039578e-14 -16.70220448 0 4.071148511 8.43348725e-14 32.98691932)
(-15.85730091 -1.934802141e-13 5.914066154 4.726234237e-14 -16.57897676 0 4.864051729 3.162956506e-14 32.58287923)
(-15.51342208 -1.291793879e-13 6.912232326 4.111895966e-14 -16.44742848 0 5.611306328 2.616161908e-14 32.11134437)
(-15.11943546 -3.878787713e-14 7.891702831 7.328189333e-14 -16.30500992 0 6.308872694 2.908202636e-14 31.57636486)
(-14.67718388 1.934728628e-14 8.853267532 3.324097508e-14 -16.15033205 0 6.95366683 5.384661746e-14 30.98167635)
(-14.19107213 6.450276267e-15 9.798466966 3.057908749e-14 -15.98320989 0 7.543539476 9.328479064e-14 30.33067251)
(-13.66428798 3.055601841e-15 10.72900065 8.533462595e-14 -15.80394171 0 8.076828977 8.640407799e-14 29.62646742)
(-13.09926821 -7.40539494e-15 11.64663135 8.010342696e-14 -15.61300361 0 8.552261985 9.539229156e-14 28.87191573)
(-12.49813288 -4.907879064e-14 12.55309177 1.262730694e-13 -15.41093595 2.02036911e-13 8.96891016 5.850492701e-14 28.06962641)
(-11.86285686 -5.329106112e-14 13.45000762 9.61586724e-14 -15.19830342 0 9.326239042 5.237090707e-14 27.22207395)
(-11.19521329 -3.2535879e-14 14.33893075 4.601759682e-14 -14.97567428 0 9.623993518 4.931703924e-14 26.33152778)
(-10.49680486 -3.919722636e-14 15.22128067 8.850707783e-14 -14.74360031 0 9.862174605 4.58982432e-14 25.40012289)
(-9.769135598 -2.60409068e-14 16.09837284 4.273379578e-14 -14.50261486 0 10.0410272 4.536762076e-14 24.42986627)
(-9.013573833 -2.014235867e-14 16.97144919 8.283443888e-14 -14.25322959 0 10.1609914 6.241397499e-14 23.4226389)
(-8.231351037 -9.792599821e-15 17.84170845 0 -13.99593121 -8.054315033e-14 10.22266378 5.811196093e-14 22.38018758)
(-7.42359017 2.634702704e-14 18.7104583 7.854252019e-14 -13.7311806 0 10.22677972 3.894393397e-14 21.30410577)
(-6.591213992 6.87297721e-14 19.5792124 0 -13.45941371 -1.535827313e-13 10.1741474 6.427513039e-14 20.19576927)
(-5.73486548 9.068959778e-14 20.44975048 3.762809892e-14 -13.18103426 0 10.06558989 4.454705737e-14 19.05629921)
(-4.854896951 5.225633588e-14 21.32428259 3.695475687e-14 -12.89641067 0 9.901905519 5.610278983e-14 17.88647664)
(-3.951268265 1.388518171e-14 22.20566368 7.272852209e-14 -12.60587173 0 9.68377681 4.056664983e-14 16.68664402)
(-3.023424303 1.221741719e-14 23.09758998 3.584709226e-14 -12.30969949 0 9.411697597 1.813869508e-14 15.45659209)
(-2.070162139 3.110909623e-16 24.00484406 7.079047676e-14 -12.00812088 7.079047676e-14 9.085870784 5.805484533e-16 14.19539967)
(-1.089436998 -2.252564394e-14 24.93359997 7.000382213e-14 -11.70129754 7.000382213e-14 8.706076412 9.385271628e-16 12.90126093)
(-0.07815371445 -2.027552095e-14 25.89180066 3.466132462e-14 -11.38931202 0 8.271536675 1.66969881e-14 11.57124336)
(0.9681087295 -7.987995659e-15 26.88964503 6.873703827e-14 -11.07215309 0 7.780733074 3.054435309e-14 10.20097758)
(2.05547791 2.122455424e-14 27.94024318 0 -10.74969595 -6.823844128e-14 7.231146915 3.057880502e-14 8.784278841)
(3.192261728 6.069974057e-14 29.06051696 5.086459439e-14 -10.42167806 0 6.618981408 2.369708161e-14 7.312624683)
(4.389617883 7.956488969e-14 30.27229604 3.373683107e-14 -10.08766859 0 5.938752455 3.613458273e-14 5.774485957)
(5.662361133 7.60870186e-14 31.60363886 3.359771757e-14 -9.747027996 0 5.182791336 3.874135794e-14 4.154488122)
(7.029918913 4.676816626e-14 33.09055311 6.697986329e-14 -9.398859974 6.697986329e-14 4.340620325 2.859307325e-14 2.432342321)
(8.517510082 2.186091779e-15 34.77897824 6.682262632e-14 -9.041952733 6.682262632e-14 3.398211694 3.66765468e-14 0.5816370454)
(10.15733963 -9.252176278e-15 36.72655345 3.335995954e-14 -8.674709087 0 2.337199714 3.864046791e-14 -1.431401374)
(11.9894374 -3.304121321e-15 39.00371069 3.333418948e-14 -8.295071774 0 1.134174614 5.161808159e-14 -3.648904073)
(14.06185995 -9.3747693e-15 41.6933061 3.333251307e-14 -7.900456166 0 -0.2396910761 4.585172109e-14 -6.12156957)
(16.42963217 2.556892998e-15 44.88769084 3.335361057e-14 -7.487702457 0 -1.818393218 2.896931e-14 -8.907604875)
(19.15221377 -3.212437726e-15 48.68314102 3.339630691e-14 -7.053074522 0 -3.640064283 2.871644625e-14 -12.07016757)
(22.28978887 -1.543910228e-14 53.17254616 3.345955712e-14 -6.592314881 3.345955712e-14 -5.745163439 4.285845859e-14 -15.67359749)
(25.89913852 -4.569500965e-15 58.43781715 3.354243002e-14 -6.100762655 0 -8.174315404 3.651566483e-14 -19.7791723)
(30.03029893 5.253604017e-14 64.54433196 1.682204663e-14 -5.57351494 -3.364409327e-14 -10.9663258 1.837556919e-14 -24.44156905)
(34.72443114 1.157828222e-13 71.5385078 8.440951865e-15 -5.005603031 1.688190373e-14 -14.15669749 1.248225939e-14 -29.70673307)
(40.01203192 1.372920611e-13 79.44910288 8.475227306e-15 -4.392161469 -1.695045461e-14 -17.77620224 3.535683966e-16 -35.61160941)
(45.91190566 1.564060186e-13 88.29115184 2.554110616e-14 -3.728597065 0 -21.84978689 -2.724325744e-14 -42.18553302)
(52.44563047 1.853128806e-13 98.06220988 1.711248893e-14 -3.010728978 0 -26.40405507 -6.04195876e-14 -49.44746476)
(59.6884511 2.245364761e-13 108.7203984 -4.301368495e-15 -2.234523811 -8.602736991e-15 -31.49625376 -1.025195045e-13 -57.39274626)
(67.76991801 2.030515108e-13 120.1979128 4.326537665e-15 -1.394943543 4.326537665e-15 -37.21746187 -9.4575373e-14 -65.99900519)
(75.71105349 9.895048676e-14 133.1142283 1.088395833e-15 -0.4858615935 2.176791665e-15 -43.02276145 -4.045106691e-14 -75.6374032)
(-13.34711745 -2.073620741e-13 0.804203508 -2.370513691e-13 -21.92018698 0 0.6666516092 2.17699951e-13 36.29052433)
(-17.6734188 -1.652217421e-13 1.861548758 8.100888865e-14 -19.12365133 0 1.616033483 2.693584962e-13 36.19622841)
(-17.3199298 -7.600408519e-14 3.021493831 4.995390451e-14 -18.22987304 0 2.549397936 1.830610833e-13 36.00587372)
(-17.53360606 -8.053145531e-14 4.177937589 1.100501026e-13 -18.0387075 5.869338807e-13 3.500195973 8.508721225e-14 35.72473762)
(-17.31531208 -1.057677392e-13 5.303987775 8.80060929e-14 -17.91042658 -4.693658288e-13 4.405938002 1.504684423e-13 35.35968974)
(-16.98592016 -1.044498508e-13 6.405428366 4.935701301e-14 -17.77582558 0 5.262992082 8.726100058e-14 34.91633155)
(-16.60858525 -1.032437659e-13 7.486745333 8.588271021e-14 -17.63185629 0 6.070067612 6.400441652e-14 34.39915613)
(-16.17678705 -6.793510254e-14 8.547805305 7.652975247e-14 -17.47588389 0 6.822793294 7.229349558e-15 33.81267261)
(-15.69255779 -3.800257617e-14 9.58944335 1.04142653e-13 -17.30647019 0 7.517773988 5.192992662e-14 33.1611358)
(-15.16078117 2.245384332e-15 10.61331928 9.580306485e-14 -17.12346039 -2.554748396e-13 8.152660002 1.000495557e-13 32.44841633)
(-14.58502324 -1.572305717e-14 11.62122266 1.485277725e-13 -16.92721884 2.37644436e-13 8.725651651 9.769354218e-14 31.67807876)
(-13.96807315 -3.414766778e-14 12.61496117 5.576907784e-14 -16.71829428 -2.230763113e-13 9.235380597 1.155652168e-13 30.85341196)
(-13.31245699 -3.914875821e-15 13.59628336 5.274780053e-14 -16.49730978 -2.109912021e-13 9.680952378 1.076057937e-13 29.97749637)
(-12.62043636 -2.177083588e-14 14.56689916 5.021021609e-14 -16.26491905 0 10.06182596 5.713708963e-14 29.05316239)
(-11.8940593 -1.849072032e-14 15.52838935 9.611420103e-14 -16.02176783 0 10.37779361 2.572145011e-14 28.08307005)
(-11.1352426 -1.566069934e-14 16.48220081 4.621485915e-14 -15.76848908 0 10.6289634 2.16392877e-14 27.06972176)
(-10.34573657 -2.950487705e-14 17.42967193 4.462776086e-14 -15.50569275 0 10.81570658 1.44009873e-14 26.01547591)
(-9.527150359 -3.193275617e-14 18.37205531 0 -15.23396282 -8.650566752e-14 10.93862874 9.383468694e-15 24.92252877)
(-8.680948129 -1.129444726e-14 19.31063768 8.411282905e-14 -14.95385487 0 10.99850746 -2.108132074e-14 23.79291524)
(-7.808414816 8.01011042e-17 20.246765 4.101176535e-14 -14.66589506 0 10.99627825 -1.158511288e-14 22.62847546)
(-6.910606302 4.984762495e-14 21.18199559 0 -14.37057662 -8.019476504e-14 10.93294436 2.643352783e-15 21.43079995)
(-5.988310702 8.906787403e-14 22.11825782 3.929577898e-14 -14.0683567 0 10.809543 1.746961848e-14 20.2011835)
(-5.04195254 6.802698541e-14 23.05798061 3.859259449e-14 -13.75965257 0 10.62706809 3.069034373e-14 18.94052227)
(-4.071495348 5.281027505e-14 24.00425461 7.595185625e-14 -13.44483451 0 10.38639053 2.991586911e-14 17.6492267)
(-3.076340161 4.737973248e-14 24.96106415 3.743583801e-14 -13.1242191 0 10.08817058 2.759408909e-14 16.32708489)
(-2.055178447 1.887905276e-14 25.93355483 7.392791599e-14 -12.79806032 7.392791599e-14 9.732740863 3.801254046e-14 14.97310933)
(-1.005810883 -1.877635001e-14 26.9283621 7.3106397e-14 -12.46653904 0 9.319978296 4.509602836e-14 13.58534888)
(0.07508276135 -2.852675447e-14 27.95404375 3.619751744e-14 -12.12974971 0 8.849159607 3.259527094e-14 12.16063479)
(1.192271676 -2.628789151e-14 29.02157561 3.589173454e-14 -11.78768438 0 8.318746845 2.389699407e-14 10.69426402)
(2.352350535 -1.611067589e-14 30.14498506 3.563138685e-14 -11.44021086 0 7.726144856 2.762025112e-14 9.179598715)
(3.564214847 -9.441057612e-15 31.34224848 5.311891755e-14 -11.08704835 0 7.067388683 4.500927412e-14 7.607520273)
(4.839724179 4.1803653e-14 32.63648264 0 -10.72773554 -7.046409988e-14 6.336722766 4.80929561e-14 5.965746064)
(6.194577357 9.021823038e-14 34.05741874 3.508677095e-14 -10.3615907 0 5.526085253 5.094048195e-14 4.237948754)
(7.649346652 7.957998505e-14 35.64306341 3.497420802e-14 -9.987659813 0 4.62445734 6.662207247e-14 2.402673167)
(9.230590488 4.542107036e-14 37.44159109 5.23381576e-14 -9.604655763 3.489210506e-14 3.617108198 7.815682979e-14 0.4320905242)
(10.97207825 -7.144609248e-16 39.51327942 6.967695114e-14 -9.210888749 6.967695114e-14 2.484776823 9.134247425e-14 -1.709256819)
(12.91569514 -2.02614177e-14 41.93156515 3.48115633e-14 -8.804189087 0 1.202966063 9.555620439e-14 -4.065444494)
(15.11154739 -7.699631378e-15 44.78247118 3.48098125e-14 -8.381838364 -3.48098125e-14 -0.2584546299 8.52250114e-14 -6.689367976)
(17.61691046 1.967795157e-14 48.16166499 3.483184512e-14 -7.940523638 0 -1.934977537 8.338772282e-14 -9.641639885)
(20.49363342 1.042205939e-14 52.16872808 3.487643405e-14 -7.476334885 3.487643405e-14 -3.866426174 9.677907959e-14 -12.98798122)
(23.80432555 -1.247214751e-14 56.89957867 3.494248713e-14 -6.984824062 0 -6.095098809 9.002006644e-14 -16.79535506)
(27.6081657 -4.600981405e-15 62.43876494 1.751451657e-14 -6.461124969 -3.502903315e-14 -8.663579299 7.267635532e-14 -21.12762302)
(31.95743619 1.664118456e-15 68.85373701 3.513520203e-14 -5.90011976 0 -11.61268444 5.971090417e-14 -26.04194596)
(36.89531014 4.154439263e-14 76.19223882 1.763011109e-14 -5.296619905 -3.526022217e-14 -14.97991023 3.632243573e-14 -31.58645559)
(42.45391823 1.259517444e-13 84.48371119 8.850850003e-15 -4.645541176 -1.770170001e-14 -18.79792262 -9.433455674e-15 -37.80008358)
(48.65320616 1.67010705e-13 93.74324214 1.778205999e-14 -3.942079785 0 -23.09337861 -3.213291875e-14 -44.71389191)
(55.5164037 2.150181813e-13 103.9673666 8.93545788e-15 -3.181859395 0 -27.89491003 -5.751609568e-14 -52.348005)
(63.12403293 2.660635893e-13 115.1109886 1.347601639e-14 -2.360644611 0 -33.26391191 -9.85298898e-14 -60.69770537)
(71.61265845 2.596031267e-13 127.1026834 9.036580324e-15 -1.473117884 -4.518290162e-15 -39.29682067 -1.117956256e-13 -69.74023709)
(79.94329122 2.805165153e-13 140.5979435 0 -0.5128338532 -2.273267239e-15 -45.415718 -1.481070205e-13 -79.8690705)
(-14.3491064 -1.957077896e-13 0.8744218796 2.477957051e-13 -23.55738337 0 0.7213833993 4.402630313e-14 39.00798627)
(-18.99869674 -1.332644571e-13 2.022847928 2.54041832e-13 -20.55648542 0 1.749564378 2.77304365e-14 38.90440947)
(-18.61187796 5.609362085e-15 3.282536553 2.088722463e-13 -19.59574499 0 2.759710409 2.525739009e-14 38.69495523)
(-18.83545868 -8.852542484e-14 4.53897474 1.53384154e-13 -19.38741392 0 3.788393343 4.824756853e-14 38.38561165)
(-18.59561544 -1.284096354e-13 5.76244525 1.226599502e-13 -19.24729299 0 4.768193756 8.410525332e-14 37.9840786)
(-18.2334516 -8.147234924e-14 6.958964001 1.031882321e-13 -19.09994652 0 5.694834297 5.875705015e-14 37.49648413)
(-17.81849351 -1.985753321e-14 8.13352557 4.488766889e-14 -18.94203092 -3.591013511e-13 6.566841283 7.057276409e-14 36.92797124)
(-17.34421442 -3.812426505e-14 9.285973411 1.199976867e-13 -18.77083874 3.199938313e-13 7.379502291 5.595675703e-14 36.2835977)
(-16.81276644 -1.309756902e-13 10.41710169 1.088629113e-13 -18.5848739 0 8.129090276 9.585046743e-14 35.56813434)
(-16.22956921 -6.27864289e-14 11.52862421 1.001453321e-13 -18.38400831 -2.670542189e-13 8.813016128 7.532225916e-14 34.78599393)
(-15.59870033 -1.109864854e-14 12.62240397 6.210391316e-14 -18.16868064 0 9.429329043 9.144474723e-14 33.94128789)
(-14.92340661 -2.533406165e-14 13.70029944 8.744521056e-14 -17.93953089 0 9.976593946 5.472413471e-14 33.03781753)
(-14.20654673 4.226932975e-14 14.76415972 5.513859066e-14 -17.69728188 -2.205543626e-13 10.45383619 5.07306264e-14 32.0791221)
(-13.45074262 8.24706632e-14 15.81572491 1.049719815e-13 -17.44267581 0 10.86050264 -2.057765487e-14 31.06849601)
(-12.65842494 2.256663188e-14 16.85659482 1.507058547e-13 -17.17645608 2.009411396e-13 11.19646165 -2.13312041e-14 30.00907634)
(-11.8318231 -1.604027837e-14 17.88823098 4.830954426e-14 -16.89934604 0 11.46190562 -5.899855818e-15 28.90377782)
(-10.973031 2.186742706e-15 18.91202515 4.665051107e-14 -16.61204456 0 11.6573459 -1.008445588e-14 27.75537267)
(-10.08392677 3.536701706e-14 19.92929772 9.042653051e-14 -16.31522223 0 11.78354247 -3.111827093e-14 26.56643517)
(-9.166217698 1.073306116e-14 20.94134011 1.318878555e-13 -16.00951307 2.63775711e-13 11.84147268 -2.922156668e-14 25.33934008)
(-8.22143714 -5.002967933e-14 21.94963464 8.574124122e-14 -15.69551856 1.714824824e-13 11.8322749 3.760360292e-15 24.07622693)
(-7.250819376 -3.450602632e-14 22.95588723 8.382958708e-14 -15.37380195 0 11.75717851 -1.888785637e-15 22.77894457)
(-6.255264712 2.904262178e-14 23.96215545 4.107685733e-14 -15.04488322 0 11.61744608 3.845399726e-15 21.44899047)
(-5.235288611 5.007268433e-14 24.97106378 4.034180075e-14 -14.70923465 0 11.41428675 3.067437536e-14 20.08741001)
(-4.190911493 3.062575743e-14 25.98600486 3.969718432e-14 -14.36727569 0 11.14878664 4.824256522e-14 18.69469725)
(-3.121504052 1.780839694e-14 27.01136178 3.913261473e-14 -14.01936477 0 10.82178563 3.875049184e-14 17.27065022)
(-2.02564183 1.25653344e-14 28.05274587 3.863934661e-14 -13.66578894 0 10.43377084 3.06570628e-14 15.81421986)
(-0.9009358022 2.496334944e-14 29.1173335 3.820996984e-14 -13.3067527 -1.528398794e-13 9.984739516 2.556894725e-14 14.32329816)
(0.2562098433 3.118692696e-14 30.21431834 3.783816731e-14 -12.94236469 0 9.474027055 1.714661633e-14 12.79446242)
(1.450917016 -7.327836825e-15 31.3554695 7.503704909e-14 -12.57262079 1.500740982e-13 8.900092731 1.775633282e-14 11.22264684)
(2.690247751 -3.83375795e-14 32.55584848 3.724637705e-14 -12.19738291 0 8.260268847 2.177503228e-14 9.600713297)
(3.983747236 -3.618623364e-14 33.83470724 3.701768557e-14 -11.81635225 0 7.550410735 1.732267786e-14 7.918891074)
(5.34410266 -2.823312309e-14 35.21660752 3.682894018e-14 -11.42903526 0 6.764480318 2.088005132e-14 6.164071866)
(6.787981997 -4.548817071e-15 36.73295878 0 -11.03470273 -7.335415245e-14 5.893993463 4.018944091e-14 4.318892817)
(8.337144088 2.799079923e-14 38.42391148 1.827970562e-14 -10.63233828 -7.311882247e-14 4.927353149 5.090744347e-14 2.360617398)
(10.01964706 2.767575916e-14 40.34018614 3.647358736e-14 -10.2205738 0 3.84906792 6.846010651e-14 0.2598707042)
(11.87099017 2.094719081e-14 42.54486966 1.820876349e-14 -9.797617199 0 2.638908603 7.876409962e-14 -2.020647358)
(13.93507461 2.054010763e-14 45.11464076 3.638939483e-14 -9.361176188 0 1.271178865 7.864979844e-14 -4.527157795)
(16.2643015 -2.860545871e-14 48.13907898 7.277512973e-14 -8.908385508 7.277512973e-14 -0.2856722924 1.052432625e-13 -7.314996818)
(18.91844345 -5.104239302e-14 51.71749973 1.820529796e-14 -8.435763037 -3.641059592e-14 -2.068800504 1.206462087e-13 -10.44744991)
(21.9620202 2.230511667e-14 55.95318896 1.822860293e-14 -7.939206883 -7.291441172e-14 -4.119887345 8.824246329e-14 -13.99310313)
(25.4603934 6.968167495e-14 60.94558272 1.826312648e-14 -7.414057255 -3.652625295e-14 -6.483285744 5.834930391e-14 -18.02188169)
(29.4754884 5.944853429e-14 66.78239664 1.830836064e-14 -6.855218909 -3.661672127e-14 -9.203757614 5.81251892e-14 -22.60062068)
(34.06216761 8.982864413e-14 73.53360067 0 -6.257332491 -3.672770277e-14 -12.32435205 2.864780629e-14 -27.78929513)
(39.26592255 1.297602466e-13 81.24869084 2.764379179e-14 -5.614961915 0 -15.88477674 -1.847857459e-14 -33.63857347)
(45.12082706 1.430086711e-13 89.95826221 2.775604231e-14 -4.922775252 0 -19.91981311 -5.163909845e-14 -40.18973678)
(51.64822545 1.541227282e-13 99.67784921 1.858803059e-14 -4.175728486 0 -24.45800918 -6.77002469e-14 -47.4758689)
(58.87330042 2.194003992e-13 110.4033042 9.340456858e-15 -3.369220846 -1.868091372e-14 -29.53024309 -1.178834368e-13 -55.51854309)
(66.88246182 3.148990285e-13 122.0864834 1.408681581e-14 -2.498784419 0 -35.20245321 -1.807503878e-13 -64.3131782)
(75.82012309 3.29421087e-13 134.6523342 9.446162701e-15 -1.558784688 4.72308135e-15 -41.57697148 -1.942457891e-13 -73.83672764)
(84.58211687 2.528325959e-13 148.7957269 3.564454363e-15 -0.5424141218 2.376302909e-15 -48.03996633 -1.533336863e-13 -84.50698536)
(-15.45835352 -1.859194843e-13 0.9536506685 -1.296435491e-13 -25.36954903 0 0.7803610629 1.300618315e-13 42.015916)
(-20.46580072 -1.579188693e-13 2.205097504 2.215190715e-13 -22.14260222 1.417722057e-12 1.89319471 8.029465865e-15 41.90196684)
(-20.041814 -1.082654709e-13 3.577543083 1.092792925e-13 -21.1077441 0 2.985925757 9.295040252e-14 41.67112509)
(-20.27612204 -1.548547802e-13 4.946764887 1.203729465e-13 -20.88029427 0 4.098525226 1.138643703e-13 41.33033146)
(-20.01227048 -1.168169525e-13 6.280144354 6.417411985e-14 -20.72698278 0 5.158186869 -2.279742607e-14 40.88807754)
(-19.61351019 -1.056010658e-13 7.583886489 5.398676556e-14 -20.56543701 0 6.159968714 9.072889472e-15 40.35112433)
(-19.15643981 -1.068735288e-13 8.863338112 1.87877242e-13 -20.39195989 0 7.10225773 3.14038463e-15 39.7252075)
(-18.63459999 -8.828614348e-14 10.11840528 1.255625152e-13 -20.2037653 -3.348333738e-13 7.979888116 4.506995661e-14 39.01605059)
(-18.05029204 -5.821642307e-14 11.34985061 1.139113705e-13 -19.99929929 -3.037636546e-13 8.788777351 5.822007258e-14 38.22904708)
(-17.40952606 -1.664625164e-14 12.55937318 1.047895185e-13 -19.77846601 0 9.526109437 2.481436638e-14 37.36920516)
(-16.71693577 1.275563834e-14 13.74889807 9.747592281e-14 -19.54178853 0 10.18974164 5.434604094e-14 36.44119173)
(-15.97618722 9.590865961e-15 14.92037765 6.100029034e-14 -19.29000743 0 10.77806772 1.712101061e-14 35.44937145)
(-15.19059768 8.665610692e-14 16.07567945 5.769561345e-14 -19.02394521 -2.307824538e-13 11.29003222 -4.123303463e-14 34.39784314)
(-14.36325243 9.981066494e-14 17.2165517 1.647600014e-13 -18.74445559 2.196800019e-13 11.72510114 -4.670117927e-14 33.2904795)
(-13.4969764 -1.036925162e-14 18.34464667 1.051298382e-13 -18.45238914 0 12.08314987 3.466182098e-15 32.13090301)
(-12.59439371 -2.848366894e-14 19.46147328 1.01099747e-13 -18.14857487 0 12.36446551 8.047990678e-15 30.92255799)
(-11.65794624 -1.005833368e-14 20.56841379 9.76278075e-14 -17.83381372 0 12.5696808 2.5841919e-15 29.66866119)
(-10.68987624 -4.897324832e-15 21.66688086 9.462001185e-14 -17.50887243 0 12.69970764 3.467541097e-15 28.37224102)
(-9.692202942 -3.324317136e-14 22.75829636 9.20027229e-14 -17.17448028 0 12.75572052 1.514911865e-14 27.03608183)
(-8.666692669 -2.466353613e-14 23.84418945 0 -16.83132486 -8.971744583e-14 12.73907577 3.066440031e-14 25.66267911)
(-7.614824752 7.281207823e-15 24.92642142 4.385856948e-14 -16.48004934 0 12.65124073 1.599642545e-14 24.25419366)
(-6.537686539 -2.107114342e-14 26.00731739 8.596354925e-14 -16.12124847 8.596354925e-14 12.49371048 3.223688851e-14 22.81236527)
(-5.43589685 -1.789089997e-14 27.08979105 0 -15.75546097 -8.442526068e-14 12.2679407 6.812796193e-14 21.33842992)
(-4.30950626 6.11308071e-14 28.1775499 0 -15.38316416 -1.66152479e-13 11.97524502 5.261549393e-14 19.83299003)
(-3.157865479 9.876953234e-14 29.27537422 4.094736887e-14 -15.00476444 0 11.61666593 3.694214323e-14 18.29587966)
(-1.979475828 4.078657834e-14 30.38940817 1.212936773e-13 -14.62058858 8.086245154e-14 11.19287522 2.665039882e-14 16.72599085)
(-0.7717625545 -7.4966131e-15 31.52749896 3.998193654e-14 -14.23087129 0 10.70400358 3.99391057e-14 15.1210543)
(0.4691743819 1.283675798e-14 32.69963414 3.95928921e-14 -13.83574019 0 10.14945956 1.532372313e-14 13.47737647)
(1.748875502 2.235123278e-14 33.91849942 7.851685202e-14 -13.43519808 0 9.527718096 2.726729154e-15 11.78949453)