/*--------------------------------*- C++ -*----------------------------------*\
  =========                 |
  \\      /  F ield         | OpenFOAM: The Open Source CFD Toolbox
   \\    /   O peration     | Website:  https://openfoam.org
    \\  /    A nd           | Version:  7
     \\/     M anipulation  |
\*---------------------------------------------------------------------------*/
FoamFile
{
    version     2.0;
    format      ascii;
    class       volScalarField;
    location    "0.0027";
    object      p;
}
// * * * * * * * * * * * * * * * * * * * * * * * * * * * * * * * * * * * * * //

dimensions      [1 -1 -2 0 0 0 0];

internalField   nonuniform List<scalar> 
1167
(
1215092.309
1225657.646
1224023.207
1224540.091
1225966.002
1227605.523
1229472.485
1231575.01
1233885.479
1236377.339
1239027.445
1241814.053
1244716.748
1247716.532
1250796.227
1253940.562
1257135.966
1260370.642
1206321.51
1216939.128
1215344.993
1215881.073
1217347.028
1219037.108
1220959.001
1223120.792
1225493.81
1228050.145
1230765.628
1233617.676
1236584.826
1239647.654
1242788.679
1245992.092
1249244.313
1252533.398
1255849.313
1259183.965
1262530.604
1265883.899
1269239.859
1272595.599
1275949.194
1279299.453
1282645.78
1285988.096
1289326.623
1292661.641
1295993.429
1299321.838
1302645.847
1305963.02
1309268.77
1312555.343
1315810.757
1319018.367
1322157.286
1325204.33
1328137.582
1330939.91
1333601.755
1336121.701
1338504.329
1340755.758
1342885.628
1344937.956
1347011.724
1348984.434
1197202.583
1207878.977
1206325.741
1206883.219
1208391.89
1210135.929
1212116.928
1214342.162
1216782.168
1219407.731
1222193.471
1225115.606
1228152.193
1231283.178
1234490.385
1237757.867
1241071.638
1244419.813
1247792.338
1251181.007
1254579.194
1257981.782
1261384.888
1264785.755
1268182.597
1271574.402
1274960.744
1278341.758
1281717.81
1285089.368
1288456.814
1291820.114
1295178.482
1298529.669
1301869.192
1305189.507
1308479.038
1311721.462
1314896.406
1317981.18
1320954.187
1323798.375
1326503.994
1329069.203
1331498.104
1333796.286
1335973.084
1338073.251
1340197.295
1342217.311
1187713.047
1198454.98
1196943.167
1197523.904
1199078.383
1200879.647
1202923.651
1205216.848
1207728.565
1210428.19
1213289.103
1216286.632
1219398.048
1222602.328
1225881.052
1229217.724
1232598.29
1236010.555
1239444.541
1242892.093
1246346.573
1249802.917
1253257.425
1256707.554
1260151.645
1263588.838
1267018.87
1270441.987
1273858.709
1277269.763
1280675.688
1284076.596
1287471.747
1290859.137
1294234.546
1297590.59
1300916.023
1304195.013
1307407.601
1310531.647
1313545.839
1316433.243
1319183.898
1321795.542
1324271.784
1326617.676
1328842.244
1330990.98
1333165.951
1335233.909
1177828.601
1188642.773
1187172.594
1187778.857
1189382.204
1191244.474
1193355.463
1195721.036
1198309.279
1201088.096
1204029.596
1207108.071
1210299.606
1213582.824
1216938.547
1220350.066
1223802.825
1227284.68
1230785.471
1234296.98
1237812.774
1241327.832
1244838.551
1248342.459
1251838.063
1255324.71
1258802.34
1262271.323
1265732.334
1269186.176
1272633.579
1276074.891
1279509.55
1282935.607
1286349.096
1289742.968
1293106.216
1296423.53
1299675.402
1302840.196
1305896.912
1308828.729
1311625.478
1314284.511
1316808.941
1319203.273
1321476.216
1323674.009
1325900.313
1328016.62
1167523.048
1178415.809
1176987.831
1177622.112
1179277.139
1181204.314
1183386.68
1185829.225
1188499
1191362.382
1194389.961
1197554.85
1200832.418
1204200.442
1207639.117
1211131.345
1214662.279
1218219.436
1221792.767
1225373.972
1228956.516
1232535.493
1236107.517
1239670.196
1243222.161
1246762.855
1250292.353
1253811.218
1257320.328
1260820.633
1264312.98
1267797.794
1271274.802
1274742.263
1278196.288
1281630.189
1285033.327
1288390.755
1291683.543
1294890.497
1297990.987
1300968.274
1303811.989
1306519.141
1309092.358
1311535.601
1313857.271
1316104.347
1318382.092
1320546.862
1156768.934
1167746.723
1166361.718
1167026.114
1168735.927
1170731.506
1172989.596
1175513.988
1178270.459
1181223.744
1184343.09
1187600.506
1190970.268
1194429.267
1197957.225
1201536.404
1205151.743
1208790.575
1212442.546
1216099.422
1219754.701
1223403.521
1227042.463
1230669.273
1234282.781
1237882.536
1241468.749
1245042.108
1248603.565
1252154.287
1255695.326
1259227.255
1262749.837
1266261.623
1269758.961
1273235.334
1276680.564
1280080.066
1283415.469
1286666.012
1289811.461
1292835.162
1295726.586
1298482.412
1301104.798
1303597.186
1305967.686
1308264.008
1310593.021
1312806.099
1145538.456
1156607.508
1155266.063
1155962.605
1157730.405
1159798.066
1162135.992
1164746.913
1167595.234
1170643.991
1173861.058
1177217.067
1180685.212
1184241.718
1187865.431
1191538.273
1195244.638
1198971.733
1202709.072
1206448.179
1210182.52
1213907.422
1217619.469
1221316.476
1224997.317
1228661.622
1232309.786
1235942.658
1239561.332
1243167.037
1246760.944
1250343.879
1253915.765
1257475.198
1261018.875
1264540.51
1268030.24
1271473.965
1274853.774
1278149.399
1281340.958
1284411.901
1287351.614
1290156.462
1292828.163
1295369.66
1297788.799
1300134.019
1302513.794
1304774.701
1133804.081
1144969.828
1143672.258
1144403.201
1146231.659
1148375.259
1150797.153
1153499.135
1156444.372
1159594.134
1162914.548
1166375.102
1169948.108
1173608.579
1177334.895
1181108.18
1184912.623
1188735.005
1192564.609
1196392.957
1200213.43
1204021.231
1207812.973
1211586.636
1215341.151
1219076.235
1222792.32
1226490.302
1230171.507
1233837.317
1237488.971
1241127.341
1244752.643
1248363.624
1251957.091
1255527.13
1259064.127
1262554.477
1265980.692
1269323.023
1272561.924
1275680.969
1278669.497
1281523.605
1284244.605
1286834.989
1289302.356
1291695.862
1294125.577
1296433.52
1121539.276
1132806.411
1131553.414
1132320.641
1134212.143
1136434.594
1138944.327
1141741.693
1144788.484
1148044.204
1151473.557
1155044.722
1158728.681
1162499.689
1166335.286
1170216.073
1174125.612
1178050.54
1181979.82
1185904.685
1189818.568
1193716.613
1197595.397
1201452.841
1205287.904
1209100.472
1212891.041
1216660.566
1220410.366
1224141.971
1227856.808
1231555.825
1235239.271
1238906.184
1242553.486
1246175.52
1249763
1253302.701
1256777.585
1260168.388
1263455.888
1266623.862
1269661.611
1272565.001
1275334.994
1277973.698
1280488.497
1282929.257
1285407.633
1287761.345
1108720.626
1120093.118
1118885.177
1119689.878
1121646.633
1123950.331
1126550.823
1129447.091
1132599.408
1135965.612
1139508.968
1143195.945
1146996.577
1150884.245
1154835.568
1158830.556
1162852.334
1166886.968
1170923.326
1174952.401
1178967.373
1182963.272
1186936.741
1190885.662
1194808.952
1198706.457
1202578.692
1206426.771
1210252.054
1214056.058
1217840.263
1221605.828
1225353.045
1229081.022
1232786.949
1236465.287
1240107.12
1243699.508
1247225.904
1250667.452
1254005.256
1257223.335
1260310.985
1263263.892
1266082.729
1268769.28
1271330.743
1273817.662
1276343.246
1278741.302
1095329.903
1106810.25
1105647.127
1106490.124
1108513.172
1110900.034
1113593.247
1116590.773
1119851.572
1123331.698
1126992.6
1130799.723
1134721.972
1138731.527
1142804.373
1146919.706
1151060.263
1155211.71
1159362.361
1163503.065
1167626.913
1171728.724
1175804.945
1179853.371
1183872.955
1187863.501
1191825.493
1195759.929
1199668.264
1203552.091
1207412.852
1211251.706
1215069.115
1218864.157
1222634.21
1226373.881
1230074.487
1233723.367
1237304.406
1240799.102
1244188.927
1247458.12
1250596.014
1253598.178
1256465.1
1259198.298
1261804.84
1264335.993
1266906.494
1269346.513
1081356.268
1092944.719
1091826.114
1092707.526
1094796.533
1097266.553
1100053.158
1103152.804
1106523.203
1110118.746
1113899.462
1117829.621
1121876.673
1126012.11
1130210.883
1134451.729
1138716.68
1142991.019
1147262.724
1151522.27
1155762.439
1159977.962
1164165.129
1168321.564
1172446.006
1176538.166
1180598.56
1184628.118
1188628.142
1192600.198
1196545.803
1200466.029
1204361.326
1208230.882
1212072.036
1215879.604
1219644.989
1223355.844
1226996.334
1230548.278
1233993.507
1237316.466
1240506.541
1243559.25
1246474.967
1249254.995
1251906.286
1254480.731
1257094.507
1259574.877
1066799.423
1078494.115
1077419.242
1078337.655
1080491.058
1083042.317
1085920.534
1089120.76
1092599.513
1096309.765
1100210.139
1104263.411
1108436.284
1112699.204
1117026.452
1121395.927
1125789.325
1130191.324
1134589.434
1138973.975
1143337.375
1147673.995
1151979.882
1156252.58
1160490.626
1164693.5
1168861.44
1172995.347
1177096.428
1181166.026
1185205.518
1189215.986
1193197.666
1197149.76
1201069.537
1204951.831
1208788.069
1212566.101
1216270.262
1219882.666
1223385.432
1226763.201
1230005.462
1233107.786
1236070.505
1238894.813
1241587.712
1244201.887
1246854.965
1249371.227
1051674.138
1063470.1
1062437.097
1063389.524
1065603.341
1068231.709
1071196.851
1074492.955
1078075.622
1081896.349
1085912.402
1090085.731
1094382.037
1098770.913
1103225.958
1107724.541
1112247.641
1116779.677
1121307.713
1125821.551
1130313.424
1134777.416
1139209.25
1143606.078
1147966.229
1152289.031
1156574.434
1160822.995
1165035.758
1169213.941
1173358.626
1177470.722
1181550.38
1185596.54
1189606.451
1193574.767
1197492.937
1201348.787
1205126.703
1208809.003
1212377.945
1215818.278
1219119.578
1222277.477
1225292.274
1228165.062
1230902.773
1233558.496
1236251.105
1238803.708
1036014.698
1047902.408
1046908.325
1047890.051
1050157.219
1052854.899
1055898.771
1059282.02
1062959.594
1066881.928
1071005.435
1075291.143
1079703.86
1084212.7
1088790.517
1093414.38
1098064.785
1102725.501
1107383.493
1112028.171
1116651.277
1121246.51
1125809.402
1130336.699
1134826.319
1139277.121
1143688.805
1148061.558
1152395.936
1156692.782
1160952.894
1165176.667
1169363.987
1173513.402
1177621.841
1181683.628
1185690.024
1189628.623
1193483.774
1197237.816
1200873.078
1204374.414
1207731.567
1210940.295
1214000.991
1216914.874
1219689.265
1222378.379
1225102.413
1227681.388
1019879.363
1031844.41
1030885.382
1031889.008
1034199.276
1036954.13
1040063.515
1043519.871
1047277.847
1051287.274
1055503.86
1059887.872
1064403.95
1069020.528
1073710.335
1078449.867
1083219.562
1088002.832
1092786.14
1097558.8
1102312.279
1107039.909
1111736.737
1116399.213
1121024.963
1125612.419
1130160.734
1134669.749
1139139.659
1143570.76
1147963.447
1152317.741
1156632.962
1160907.34
1165137.254
1169316.649
1173436.277
1177483.279
1181441.67
1185293.422
1189020.56
1192607.773
1196044.697
1199327.002
1202455.017
1205429.833
1208258.428
1210994.663
1213759.725
1216376.14
1003356.85
1015378.857
1014449.417
1015464.399
1017803.208
1020598.255
1023754.089
1027263.119
1031080.172
1035154.675
1039442.047
1043902.67
1048500.891
1053205.111
1057987.896
1062825.816
1067698.911
1072590.69
1077487.455
1082378.131
1087253.902
1092107.952
1096934.874
1101730.544
1106491.996
1111217.22
1115904.712
1120553.466
1125162.975
1129732.819
1134262.435
1138751.121
1143197.296
1147598.371
1151949.881
1156245.019
1160473.715
1164622.488
1168674.764
1172612.052
1176416.089
1180071.477
1183567.854
1186900.994
1190071.45
1193080.788
1195937.183
1198696.794
1201481.856
1204108.137
986571.6412
998622.559
997715.2281
998727.9448
1001075.49
1003887.751
1007064.433
1010598.158
1014444.496
1018553.271
1022880.343
1027386.369
1032035.93
1036797.972
1041645.227
1046554.671
1051506.656
1056484.637
1061475.296
1066467.697
1071452.943
1076424.06
1081375.697
1086303.578
1091204.382
1096075.647
1100915.608
1105722.806
1110496.034
1115234.344
1119936.535
1124601.052
1129225.612
1133806.643
1138338.766
1142814
1147221.036
1151545.105
1155768.18
1159870.314
1163831.954
1167636.545
1171272.774
1174735.691
1178025.266
1181142.269
1184093.097
1186931.111
1189779.501
1192466.012
969688.1595
981731.0478
980837.1517
981830.2993
984161.4871
986961.0369
990124.9994
993646.6285
997482.8722
1001584.757
1005908.973
1010416.831
1015074.121
1019850.32
1024719.148
1029657.956
1034647.857
1039672.727
1044719.351
1049777.158
1054837.397
1059892.915
1064938.014
1069968.134
1074979.462
1079968.699
1084933.121
1089870.349
1094777.969
1099653.624
1104494.863
1109298.569
1114060.995
1118777.018
1123439.804
1128039.824
1132564.37
1136997.257
1141319.136
1145508.928
1149546.188
1153413.697
1157099.782
1160599.459
1163913.054
1167042.574
1169997.926
1172838.587
1175687.736
1178350.243
952914.8365
964902.5821
964011.8312
964964.2256
967248.762
969999.2498
973109.304
976573.7143
980351.5723
984395.6399
988664.1105
993120.3001
997731.5912
1002468.955
1007307.693
1012226.584
1017207.961
1022237.254
1027302.346
1032393.714
1037503.785
1042626.474
1047756.835
1052891.033
1058025.918
1063158.73
1068286.912
1073408.171
1078520.106
1083619.933
1088704.579
1093770.132
1098811.644
1103822.577
1108794.218
1113714.779
1118568.886
1123337.152
1127996.612
1132522.375
1136890.097
1141078.881
1145073.797
1148867.061
1152456.359
1155840.108
1159021.226
1162048.946
1165048.878
1167864.284
936489.8842
948367.322
947468.2032
948355.0458
950555.9229
953213.0048
956218.0494
959567.8944
963224.4205
967142.6713
971283.199
975611.6243
980096.9543
984712.1975
989434.1741
994243.3815
999123.3127
1004060.554
1009044.161
1014065.327
1019117.142
1024193.998
1029291.252
1034405.063
1039532.098
1044669.163
1049813.029
1054960.462
1060107.868
1065251.093
1070385.447
1075505.332
1080603.928
1085672.85
1090701.435
1095675.963
1100579.072
1105389.306
1110081.561
1114628.81
1119004.703
1123186.677
1127158.706
1130912.678
1134447.138
1137764.222
1140877.659
1143854.855
1146818.168
1149533.888
920735.5229
932425.948
931505.3484
932301.4482
934381.0468
936900.1863
939750.4205
942931.0302
946407.753
950139.3134
954089.8673
958228.1642
962526.5647
966961.5208
971512.9882
976164.6326
980903.1727
985718.3345
990602.3416
995549.6426
1000556.497
1005620.46
1010740.091
1015914.713
1021143.975
1026427.489
1031764.76
1037154.859
1042596.067
1048085.766
1053620.104
1059193.641
1064798.986
1070426.221
1076062.175
1081689.524
1087285.994
1092823.878
1098270.478
1103589.985
1108746.58
1113708.176
1118449.71
1122954.583
1127212.366
1131212.048
1134942.868
1138438.692
1141828.879
1144989.69
917266.2488
916314.6069
916986.4368
918891.9084
921206.2208
923822.2682
926741.5707
929933.5053
933360.2051
936988.6578
940790.156
944739.5176
948815.2728
952999.3289
957276.88
961636.232
966068.2887
970566.3638
975126.082
979744.549
984420.0724
989152.1684
993940.9016
998786.5522
1003689.485
1008649.968
1013667.644
1018741.444
1023869.495
1029048.498
1034273.725
1039538.409
1044833.269
1050145.617
1055458.413
1060749.04
1065988.648
1071142.312
1076170.746
1081033.784
1085694.759
1090124.682
1094304.801
1098226.4
1101890.203
1105321.021
1108614.145
1111899.241
1114816.669
)
;

boundaryField
{
    front_top
    {
        type            wedge;
    }
    front_middle
    {
        type            wedge;
    }
    front_bottom
    {
        type            wedge;
    }
    back_top
    {
        type            wedge;
    }
    back_middle
    {
        type            wedge;
    }
    back_bottom
    {
        type            wedge;
    }
    axis_top
    {
        type            symmetryPlane;
    }
    axis_middle
    {
        type            symmetryPlane;
    }
    axis_bottom
    {
        type            symmetryPlane;
    }
    wall_top
    {
        type            fixedFluxPressure;
        gradient        nonuniform 0();
        value           nonuniform 0();
    }
    wall_middle
    {
        type            fixedFluxPressure;
        gradient        uniform 0;
        value           nonuniform List<scalar> 
23
(
1348984.434
1342217.311
1335233.909
1328016.62
1320546.862
1312806.099
1304774.701
1296433.52
1287761.345
1278741.302
1269346.513
1259574.877
1249371.227
1238803.708
1227681.388
1216376.14
1204108.137
1192466.012
1178350.243
1167864.284
1149533.888
1144989.69
1114816.669
)
;
    }
    wall_bottom
    {
        type            fixedFluxPressure;
        gradient        nonuniform 0();
        value           nonuniform 0();
    }
    inlet
    {
        type            zeroGradient;
    }
    outlet
    {
        type            fixedValue;
        value           nonuniform 0();
    }
    procBoundary3to2
    {
        type            processor;
        value           nonuniform List<scalar> 
51
(
905825.1093
905825.1093
903485.5558
902489.3999
903024.3672
904738.1208
906831.0575
909199.3038
911848.7904
914754.7317
917884.9226
921211.9494
924712.7011
928367.5686
932160.4236
936078.6166
940112.5807
944256.1304
948505.3515
952859.2618
957318.9942
961887.238
966568.3926
971368.035
976292.2442
981347.7098
986541.2964
991879.4879
997368.2521
1003012.711
1008816.614
1014782.004
1020908.727
1027193.67
1033630.062
1040206.275
1046904.415
1053698.597
1060553.416
1067423.54
1074255.173
1080990.287
1087572.841
1093955.073
1100100.922
1105981.891
1111561.498
1116782.936
1121619.115
1126181.113
1130380.905
)
;
    }
    procBoundary3to4
    {
        type            processor;
        value           nonuniform List<scalar> 
51
(
1223535.822
1234055.152
1232380.575
1232880.624
1234269.144
1235861.774
1237677.465
1239724.68
1241976.912
1244408.825
1246998.302
1249724.341
1252567.207
1255508.67
1258531.805
1261621.65
1264764.744
1267949.532
1263634.675
1263634.675
1266919.737
1270219.057
1273527.259
1276840.164
1280154.711
1283468.74
1286780.921
1290090.516
1293397.257
1296701.231
1300002.576
1303301.361
1306597.268
1309889.124
1313174.429
1316448.432
1319703.088
1322926.17
1326100.709
1329205.264
1332216.239
1335111.323
1337873.335
1340492.873
1342968.922
1345306.566
1347512.438
1349596.463
1351601.924
1353626.314
1355552.586
)
;
    }
}


// ************************************************************************* //
