/*--------------------------------*- C++ -*----------------------------------*\
  =========                 |
  \\      /  F ield         | OpenFOAM: The Open Source CFD Toolbox
   \\    /   O peration     | Website:  https://openfoam.org
    \\  /    A nd           | Version:  7
     \\/     M anipulation  |
\*---------------------------------------------------------------------------*/
FoamFile
{
    version     2.0;
    format      ascii;
    class       volScalarField;
    location    "0.0027";
    object      T;
}
// * * * * * * * * * * * * * * * * * * * * * * * * * * * * * * * * * * * * * //

dimensions      [0 0 0 1 0 0 0];

internalField   nonuniform List<scalar> 
1167
(
443.4519056
443.5756008
443.8414024
444.2359133
444.7522897
445.3855605
446.1309441
446.9837353
447.9398071
448.994697
450.1437461
451.3819343
452.7042853
454.1054703
455.579311
457.1203834
458.7219547
460.378169
443.7213095
443.8470035
444.1170595
444.5174267
445.0417377
445.6840823
446.4398105
447.3040947
448.2722681
449.3395857
450.5011477
451.7519285
453.0865223
454.4989749
455.9836038
457.5340537
459.1441928
460.8071646
462.5166236
464.26601
466.0487346
467.8582157
469.6882537
471.5328707
473.3861793
475.242687
477.0972263
478.9448428
480.7812169
482.6022276
484.4042
486.1838751
487.9381715
489.664674
491.3612841
493.0259814
494.6571475
496.2538398
497.8148274
499.3395496
500.82745
502.2783769
503.6920475
505.0689009
506.4088605
507.7125286
508.9806296
510.2137491
511.4127266
512.5785877
443.9936917
444.1213629
444.3953149
444.8017624
445.3336636
445.9851563
446.7509943
447.6263372
448.6062396
449.6856627
450.8594821
452.1223552
453.4682684
454.8916632
456.3862089
457.9455582
459.5631236
461.2324382
462.9464642
464.6987544
466.4828071
468.2919956
470.1199851
471.9607193
473.8084803
475.6578659
477.503753
479.3413792
481.1664314
482.9747025
484.7627697
486.5275242
488.2661731
489.9761282
491.6553825
493.3022285
494.9150823
496.4929302
498.0349915
499.5403448
501.0089114
502.4402498
503.8344736
505.1918594
506.5123998
507.7968442
509.0458802
510.2600627
511.4403676
512.5877747
444.2688089
444.3982755
444.6763469
445.0888449
445.6280983
446.2885622
447.0644934
447.9506618
448.9420022
450.0331845
451.2187734
452.4929507
453.8500089
455.2836959
456.7875124
458.3550699
459.9795995
461.6542019
463.3722387
465.1269793
466.9115632
468.719596
470.5448317
472.3812711
474.2231243
476.0649951
477.9017765
479.7289329
481.5422344
483.3377535
485.1120118
486.8618256
488.5846753
490.2782824
491.9405038
493.5696587
495.1646323
496.7240426
498.2475175
499.7340975
501.1838337
502.5961992
503.9715884
505.3100728
506.6119443
507.8778561
509.1085366
510.3045092
511.4668791
512.5965803
444.5465118
444.6779176
444.9601056
445.3783077
445.9251108
446.5942088
447.3799985
448.2769086
449.2794176
450.3819404
451.5788587
452.8642294
454.2319025
455.6751826
457.1879565
458.762957
460.3937924
462.0733242
463.7945262
465.5508882
467.3356092
469.1420868
470.9639746
472.7954264
474.630742
476.4646821
478.2921886
480.1087192
481.9100223
483.6924555
485.4526818
487.1877843
488.8949115
490.5721076
492.2175586
493.8293231
495.4064896
496.9480363
498.4531997
499.9215535
501.3528022
502.7468413
504.1039395
505.4240995
506.7078991
507.9558967
509.1688372
510.3472736
511.492372
512.6050414
444.8268935
444.9602239
445.2463752
445.670272
446.2245302
446.9022397
447.6976401
448.6049651
449.6183914
450.7321021
451.9401524
453.2362449
454.6138541
456.0666297
457.587456
459.1697764
460.8061997
462.4899271
464.2140217
465.9714784
467.7555677
469.5597988
471.3780063
473.2041672
475.0325636
476.8580959
478.6758478
480.4814133
482.2707241
484.040023
485.7860796
487.5061891
489.1978512
490.8587691
492.4873789
494.0821569
495.6417677
497.165728
498.6529378
500.1034412
501.5166212
502.8927808
504.231986
505.5344079
506.8006623
508.0312924
509.227014
510.3885372
511.5169551
512.6131946
445.1098458
445.2449692
445.5349351
445.9647205
446.5260757
447.2125016
448.0174587
448.9350279
449.9591645
451.0838122
452.3025241
453.6088692
454.9963534
456.457883
457.986667
459.5754378
461.2172981
462.904722
464.6309338
466.38909
468.1722894
469.9738183
471.7877167
473.608016
475.4292081
477.2461573
479.053951
480.8482719
482.6252047
484.3812346
486.1132414
487.8183153
489.4942976
491.1392435
492.7511239
494.3288968
495.8713328
497.3777612
498.8474978
500.2803406
501.6759425
503.0346075
504.356291
505.6414554
506.8906225
508.104362
509.28336
510.4284772
511.5407348
512.6210753
445.3949499
445.5319224
445.8259156
446.2614039
446.8299214
447.5246732
448.3391384
449.2668761
450.3015049
451.4367017
452.6658974
453.9824514
455.3792253
456.8493096
458.3854986
459.9805669
461.6270744
463.3179701
465.0460487
466.8042813
468.585941
470.3845444
472.1939475
474.0080778
475.8216358
477.6295373
479.4271182
481.2101669
482.9746131
484.7171432
486.4348601
488.1251366
489.7854427
491.4142134
493.0097006
494.5705332
496.0960241
497.585126
499.0376258
500.4530331
501.831401
503.1728725
504.477409
505.7456866
506.978157
508.1753913
509.3381173
510.4672665
511.5638145
512.6287181
445.6823477
445.8212072
446.1191985
446.5601033
447.1359418
447.8389268
448.6626162
449.6002649
450.6452542
451.790926
453.0304423
454.3566923
455.7625401
457.2409242
458.7841066
460.3850373
462.0360875
463.7298311
465.4593573
467.2175505
468.9973854
470.7925569
472.5969521
474.4047335
476.2105771
478.0092506
479.7963101
481.567702
483.3196402
485.0487404
486.7520668
488.4272736
490.0721747
491.6847948
493.2638644
494.8079708
496.3164841
497.7885846
499.2239727
500.6222368
501.9836126
503.3080432
504.5958358
505.8475341
507.0636336
508.2446649
509.3915215
510.5050733
511.5862954
512.6361568
445.9719729
446.1127024
446.4143198
446.8609045
447.4436292
448.1550914
448.9878749
449.9352774
450.990442
452.1463789
453.3957062
454.7314678
456.1463214
457.6323797
459.1825738
460.7889047
462.4440638
464.140657
465.8712147
467.6288311
469.4066694
471.1983411
472.9975189
474.798569
476.5962922
478.3856715
480.1622879
481.9218884
483.6610437
485.3765885
487.0656945
488.7257841
490.3551046
491.9518042
493.5143913
495.0419876
496.5335771
497.9888545
499.4071858
500.7885875
502.1331635
503.4407683
504.7120474
505.9474146
507.1474076
508.3125171
509.443798
510.5420594
511.6082745
512.6434239
446.2635617
446.4059561
446.7114216
447.1636259
447.7531307
448.4725754
449.3144605
450.2714996
451.3365513
452.5023272
453.7615143
455.1066586
456.5298376
458.0237228
459.5802748
461.1920745
462.8510078
464.5499138
466.2815225
468.0384746
469.8139513
471.6017177
473.3956132
475.1899826
476.9794766
478.7593087
480.5251909
482.2731682
483.9995955
485.7014437
487.3761833
489.0213765
490.6350601
492.2158824
493.7621106
495.2731544
496.7480352
498.1865551
499.5879885
500.9526624
502.2804633
503.5715462
504.8264906
506.0457203
507.2297308
508.3792236
509.4951623
510.5783789
511.6298446
512.6505506
446.5569018
446.7010975
447.0103759
447.4677351
448.0642224
448.7914628
449.6420393
450.6084346
451.683177
452.8587082
454.1274828
455.481363
456.9129492
458.414102
459.9770352
461.5936709
463.2564401
464.9575552
466.6897417
468.4458434
470.2190571
472.0028695
473.7912432
475.5786847
477.3600144
479.1304549
480.8855911
482.6217192
484.335472
486.0238129
487.6841308
489.3144003
490.9126565
492.4774567
494.007592
495.5020613
496.960427
498.3821201
499.7669187
501.1149749
502.4261061
503.7008139
504.9395623
506.1428032
507.3109885
508.4450363
509.5458124
510.6141748
511.6510921
512.6575659
446.8520812
446.9980212
447.3108028
447.7733446
448.3763256
449.1113729
449.9703526
450.9457855
452.029881
453.2147478
454.4924295
455.8550745
457.294623
458.802769
460.3716959
461.9931647
463.6592441
465.3625015
467.0953384
468.850362
470.6210361
472.4009405
474.184011
475.9645799
477.7376202
479.4985507
481.2432282
482.967686
484.6687178
486.3436152
487.9898009
489.6051345
491.1881539
492.7370695
494.2511138
495.7292091
497.1711393
498.5761272
499.9443906
501.2758077
502.5704939
503.8289314
505.0515922
506.2388725
507.3914458
508.5101747
509.5959223
510.649573
511.6720937
512.6644959
447.1489614
447.2963876
447.6125121
448.0801625
448.6892184
449.4314591
450.2986141
451.2826546
452.3755301
453.5692128
454.8556297
456.2265415
457.6734604
459.1884602
460.7629001
462.3888606
464.0582827
465.7633139
467.4965379
469.2507012
471.0189323
472.7948206
474.5724672
476.3464382
478.1115446
479.8631087
481.5972764
483.3103562
484.999037
486.6605863
488.2928254
489.8935601
491.4613107
492.9947384
494.4927203
495.9547328
497.3801873
498.7687851
500.120635
501.4354938
502.7138754
503.956144
505.1628031
506.3342271
507.4712939
508.5748037
509.6456263
510.6846736
511.6929117
512.6713623
447.4470425
447.5960137
447.9154243
448.3875458
449.0025143
449.7513835
450.6259727
451.6179646
452.719071
453.9210637
455.2155041
456.5938284
458.0478854
459.568879
461.1487627
462.7787011
464.4510553
466.1579698
467.8914409
469.6444889
471.4103641
473.1825846
474.9550189
476.7224338
478.4797606
480.2225549
481.946608
483.6484799
485.3251719
486.9738956
488.5923759
490.1789676
491.7317907
493.2499338
494.7322221
496.1783695
497.5875999
498.9600084
500.2954773
501.5940855
502.8563047
504.0825316
505.2732052
506.4289761
507.5506334
508.6390164
509.695004
510.7195379
511.7135852
512.6781792
447.7465368
447.8968909
448.2191633
448.6952576
449.315392
450.0703686
450.9515747
451.9506424
453.0590749
454.2683256
455.5697213
456.9549297
458.4150457
459.9416229
461.5259428
463.1597833
464.8346141
466.5428496
468.2767019
470.0287543
471.7922371
473.5607791
475.3284754
477.0898647
478.8398096
480.5740782
482.2886929
483.9800268
485.6451276
487.281585
488.8869718
490.4596886
491.9983228
493.5015101
494.9686842
496.3991716
497.7927228
499.1492627
500.4686087
501.7512485
502.9975273
504.2078513
505.3827663
506.5230339
507.6294146
508.7027901
509.7440516
510.7541729
511.7341242
512.684952
448.0472975
448.19875
448.5231864
449.002852
449.6271123
450.3870957
451.2739159
452.2788404
453.3932215
454.608458
455.9158356
457.3065494
458.7716885
460.3027816
461.8908408
463.5274798
465.2045773
466.9137972
468.6475398
470.3985615
472.1600079
473.9251421
475.6883116
477.4440647
479.1874641
480.9139297
482.6196529
484.301278
485.9557314
487.5805589
489.1737971
490.7334454
492.2585271
493.7475862
495.2002673
496.6157687
497.9942066
499.3352304
500.6390986
501.9061827
503.1368872
504.3315665
505.4910689
506.6160777
507.7073942
508.7659469
509.7926445
510.788498
511.7544851
512.6916683
448.3489312
448.5011095
448.8273749
449.3094942
449.9369208
450.7004483
451.5912091
452.6003334
453.7190742
454.9386372
456.2501458
457.6445916
459.1134018
460.6473525
462.2380115
463.8764828
465.5546672
467.2644371
468.9977967
470.7475069
472.5067311
474.2689575
476.0281791
477.7788704
479.5162656
481.2360013
482.9339214
484.6067544
486.2517353
487.8661763
489.4481795
490.996138
492.5086152
493.9847516
495.4237813
496.8254222
498.1895835
499.5159462
500.805078
502.057278
503.272889
504.4525911
505.5971629
506.7073411
507.7839728
508.8280384
509.8404685
510.8223142
511.7745637
512.6982985
448.6513693
448.8040067
449.1312663
449.6144489
450.2435796
451.0089391
451.9015967
452.9127088
454.0334797
455.2548679
456.5679985
457.9641124
459.4340821
460.9691583
462.5603222
464.1992394
465.8772453
467.5863113
469.3186328
471.066792
472.823694
474.5829798
476.338725
478.0852756
479.8176022
481.5315171
483.2230584
484.8885991
486.5254541
488.1312602
489.7036431
491.2414297
492.7429898
494.207695
495.6346363
497.0238414
498.3749244
499.6880404
500.9636014
502.2019386
503.4034796
504.5690992
505.6995324
506.795586
507.858159
508.8882912
509.8869439
510.855219
511.7941247
512.7047679
448.9545532
449.107152
449.4339832
449.9170315
450.5456317
451.3105162
452.2025295
453.2127177
454.3322939
455.5523401
456.8641188
458.2586178
459.7267996
461.2600425
462.8492224
464.485983
466.1620372
467.868786
469.5986787
471.344362
473.0986984
474.8550035
476.6074934
478.3505094
480.0790243
481.7884393
483.4749795
485.1352076
486.7659006
488.3649222
489.9300689
491.4597584
492.9527508
494.4080719
495.8252233
497.204011
498.5440707
499.8458247
501.109592
502.3356506
503.524763
504.6777278
505.7953362
506.8784688
507.928081
508.9452752
509.9310474
510.8865495
511.8128114
512.7109703
449.2581781
449.4099217
449.7352892
450.216192
450.8418303
451.6030917
452.4909435
453.4965247
454.6110599
455.8257736
457.131981
458.5204797
459.9829464
461.5102493
463.0939348
464.7251844
466.3960318
468.0981584
469.8235592
471.5651222
473.3157262
475.0687135
476.817959
478.5579007
480.2834848
481.9899832
483.673355
485.3302199
486.9573976
488.5523246
490.1130977
491.6377048
493.1251877
494.5742448
495.9846785
497.3559773
498.6880775
499.9812994
501.2358898
502.452319
503.6313866
504.7739077
505.8807267
506.952796
507.9911334
508.9969136
509.9711851
510.9151708
511.8299451
512.7166855
449.5619696
449.7122846
450.0346108
450.5107093
451.1305761
451.8845436
452.7640431
453.7603835
454.8648939
456.0690287
457.3640138
458.7413289
460.1925837
461.708731
463.2816883
464.9028531
466.5641739
468.2576536
469.9753733
471.7101096
473.4548667
475.2030554
476.9483755
478.6851825
480.4083616
482.1131665
483.7951784
485.4510014
487.0774157
488.6714666
490.2312749
491.7546996
493.2405637
494.6875982
496.0954858
497.4635286
498.7918277
500.0805978
501.3299758
502.540644
503.7133353
504.8489045
505.9482393
507.0123542
508.042322
509.03938
510.0046185
510.9393143
511.8445749
512.7216284
449.8660134
450.0139994
450.3311489
450.7998278
451.4099773
452.1525769
453.0187069
454.0002202
455.0886487
456.2756279
457.5528437
458.9121123
460.3450785
461.8433469
463.3988337
465.003477
466.6492268
468.328439
470.0334365
471.7569971
473.4922883
475.2327643
476.9721369
478.7046661
480.4251682
482.1287764
483.8108796
485.4679109
487.0964627
488.6933273
490.2564247
491.7834247
493.2728917
494.7234263
496.1345125
497.5052629
498.8357278
500.1259915
501.3760615
502.5866603
503.7584453
504.8922611
505.9890014
507.0497134
508.0755156
509.0677145
510.0274755
510.9561729
511.8549987
512.7252429
450.3146091
450.6244545
451.0826314
451.6788912
452.4048239
453.2519817
454.2122142
455.2774003
456.439703
457.6912061
459.0240686
460.4302399
461.9019516
463.4313793
465.0109456
466.6329239
468.2900457
469.9748692
471.680523
473.400336
475.127875
476.8569011
478.5818351
480.297378
481.9984544
483.6805646
485.3398151
486.9724551
488.5752715
490.1457639
491.6812254
493.1801232
494.6405728
496.0618764
497.4429434
498.7834588
500.0833538
501.3424923
502.5613677
503.7405564
504.8808115
505.982963
507.0480165
508.0770688
509.0714186
510.03223
510.9608848
511.8585985
512.7267371
)
;

boundaryField
{
    front_top
    {
        type            wedge;
    }
    front_middle
    {
        type            wedge;
    }
    front_bottom
    {
        type            wedge;
    }
    back_top
    {
        type            wedge;
    }
    back_middle
    {
        type            wedge;
    }
    back_bottom
    {
        type            wedge;
    }
    axis_top
    {
        type            symmetryPlane;
    }
    axis_middle
    {
        type            symmetryPlane;
    }
    axis_bottom
    {
        type            symmetryPlane;
    }
    wall_top
    {
        type            convectiveRadiativeHeatFlux;
        mode            convectiveRadiative;
        kappaMethod     fluidThermo;
        kappa           none;
        alphaAni        Anialpha;
        h               nonuniform 0();
        Ta              constant 513.15;
        emissivityNozzle 0.95;
        emissivityFilament 0.95;
        dNozzle         2;
        dFilament       1.65;
        refValue        nonuniform 0();
        refGradient     nonuniform 0();
        valueFraction   nonuniform 0();
        value           nonuniform 0();
    }
    wall_middle
    {
        type            fixedValue;
        value           uniform 513.15;
    }
    wall_bottom
    {
        type            fixedValue;
        value           nonuniform 0();
    }
    inlet
    {
        type            fixedValue;
        value           nonuniform 0();
    }
    outlet
    {
        type            zeroGradient;
    }
    procBoundary3to2
    {
        type            processor;
        value           nonuniform List<scalar> 
51
(
450.1701404
450.1701404
450.6139384
450.9142712
451.3582185
451.9363125
452.6401075
453.4617868
454.393538
455.4276934
456.556827
457.7734847
459.0703179
460.4397585
461.8746124
463.3675855
464.9115014
466.4993099
468.1241076
469.778753
471.4570568
473.152546
474.8587957
476.5703116
478.2814067
479.9867114
481.6813837
483.3609793
485.021207
486.6582236
488.2688399
489.84977
491.3985838
492.9128938
494.390819
495.8308669
497.2319766
498.5930165
499.9137054
501.1936968
502.432799
503.6314158
504.7900011
505.9091333
506.9896026
508.0323624
509.0386347
510.0095969
510.9467027
511.8512887
512.7247951
)
;
    }
    procBoundary3to4
    {
        type            processor;
        value           nonuniform List<scalar> 
51
(
443.1855693
443.3072412
443.5687328
443.9570521
444.4656083
445.0895579
445.8240835
446.6652716
447.6089352
448.6508955
449.7867788
451.0120598
452.3217126
453.7105425
455.173288
456.7037752
458.296425
459.9448281
462.0823174
462.0823174
463.8277859
465.6084033
467.4176597
469.249213
471.0970279
472.9551823
474.818199
476.680913
478.538304
480.3858813
482.2194627
484.0351263
485.8295233
487.5997197
489.3430264
491.0571298
492.739924
494.3899239
496.0057582
497.5863025
499.1309336
500.6387848
502.1099114
503.5437514
504.9407437
506.3009106
507.6245676
508.9125182
510.1653779
511.3838416
512.5689809
)
;
    }
}


// ************************************************************************* //
