/*--------------------------------*- C++ -*----------------------------------*\
  =========                 |
  \\      /  F ield         | OpenFOAM: The Open Source CFD Toolbox
   \\    /   O peration     | Website:  https://openfoam.org
    \\  /    A nd           | Version:  7
     \\/     M anipulation  |
\*---------------------------------------------------------------------------*/
FoamFile
{
    version     2.0;
    format      ascii;
    class       volScalarField;
    location    "0.0027";
    object      thermo:alpha;
}
// * * * * * * * * * * * * * * * * * * * * * * * * * * * * * * * * * * * * * //

dimensions      [1 -1 -1 0 0 0 0];

internalField   nonuniform List<scalar> 
1167
(
0.000120392234
0.0001203805075
0.000120355316
0.0001203179434
0.000120269058
0.0001202069331
0.0001201294681
0.0001200487957
0.000119951234
0.0001198499623
0.0001197326333
0.000119616414
0.0001194873804
0.0001193522438
0.0001192013929
0.0001190435591
0.0001188652027
0.0001186808962
0.0001203666967
0.0001203547852
0.0001203292004
0.0001202912881
0.0001202416715
0.000120175899
0.0001201001241
0.0001200171315
0.0001199179457
0.0001198157481
0.0001196990241
0.0001195817424
0.0001194480442
0.0001193122431
0.0001191599529
0.0001189976584
0.0001188181746
0.0001186332265
0.0001184308213
0.0001182105363
0.0001179806065
0.0001177412348
0.0001174894296
0.0001172234606
0.0001169504495
0.0001166627078
0.0001163672718
0.0001160672546
0.0001157602496
0.0001154474683
0.0001151272181
0.0001148064402
0.000114475248
0.0001141453751
0.0001138110965
0.0001134838608
0.0001131502033
0.0001128131633
0.0001124799884
0.0001121535169
0.0001118237584
0.0001115016736
0.0001111767982
0.0001108609837
0.000110551858
0.0001102421424
0.0001099339046
0.000109630841
0.0001093366532
0.0001090471895
0.0001203408869
0.0001203287928
0.000120302849
0.0001202643762
0.0001202123296
0.0001201446128
0.0001200707539
0.0001199837206
0.000119886509
0.0001197799674
0.0001196654031
0.0001195470483
0.0001194117645
0.000119271931
0.0001191187093
0.000118951749
0.0001187715424
0.0001185852298
0.0001183791999
0.0001181546697
0.0001179247079
0.0001176814906
0.0001174301188
0.0001171608765
0.0001168849315
0.0001165984602
0.00011630404
0.0001160006694
0.0001156940186
0.0001153835878
0.000115062587
0.0001147415
0.0001144134135
0.0001140839518
0.0001137532302
0.0001134282414
0.0001130973318
0.0001127620861
0.0001124330541
0.0001121089762
0.0001117835875
0.0001114644419
0.000111144102
0.000110832809
0.0001105272399
0.0001102221302
0.0001099178553
0.0001096194683
0.0001093298767
0.000109044858
0.0001203148281
0.0001203025687
0.0001202762452
0.0001202372155
0.000120181718
0.000120114404
0.0001200411782
0.0001199501093
0.0001198549187
0.0001197440549
0.0001196317093
0.000119509138
0.0001193760999
0.0001192317084
0.0001190776222
0.0001189060883
0.0001187252106
0.0001185344869
0.0001183260276
0.0001180994199
0.0001178695272
0.0001176226327
0.0001173681296
0.000117099396
0.0001168206389
0.0001165354942
0.0001162426416
0.0001159374743
0.0001156294397
0.0001153196307
0.0001149996678
0.0001146783557
0.0001143533964
0.0001140243876
0.0001136971525
0.0001133733221
0.0001130460635
0.0001127127291
0.0001123877614
0.0001120660093
0.0001117448735
0.0001114285804
0.000111112631
0.0001108057259
0.0001105035749
0.0001102029043
0.0001099024454
0.0001096085548
0.0001093233773
0.0001090426234
0.0001202885347
0.0001202760966
0.0001202493941
0.0001202076872
0.0001201508514
0.00012008555
0.0001200092602
0.0001199175088
0.0001198219706
0.0001197102126
0.0001195979582
0.0001194709179
0.0001193396725
0.000119191564
0.0001190362912
0.0001188606347
0.0001186791596
0.0001184840916
0.0001182714425
0.0001180447595
0.0001178132612
0.0001175645126
0.0001173067343
0.0001170388857
0.0001167574718
0.0001164708095
0.000116179829
0.0001158755785
0.0001155662705
0.0001152556025
0.0001149383222
0.0001146168152
0.0001142949622
0.0001139664891
0.0001136426822
0.0001133200169
0.0001129943183
0.0001126649073
0.0001123439397
0.0001120244496
0.000111707486
0.0001113939466
0.0001110822589
0.0001107796062
0.0001104807662
0.0001101843855
0.0001098876161
0.000109598055
0.0001093171279
0.0001090404762
0.0001202619982
0.0001202493829
0.0001202214071
0.0001201773344
0.0001201204503
0.0001200564837
0.0001199763298
0.000119886629
0.0001197869212
0.0001196773527
0.0001195641111
0.0001194334509
0.0001193004476
0.0001191514457
0.0001189916991
0.0001188153261
0.0001186333337
0.0001184340284
0.0001182172501
0.0001179905589
0.0001177553778
0.0001175070835
0.0001172461228
0.0001169786996
0.0001166952378
0.0001164064031
0.0001161136404
0.0001158118201
0.0001155043496
0.0001151928925
0.0001148783139
0.0001145567275
0.0001142374886
0.0001139100246
0.0001135896542
0.0001132681321
0.0001129439971
0.0001126184449
0.0001123013963
0.0001119841345
0.0001116712462
0.0001113604008
0.0001110528799
0.0001107543421
0.0001104587191
0.0001101664962
0.0001098733102
0.0001095879243
0.0001093111017
0.0001090384071
0.000120235229
0.0001202215534
0.0001201914026
0.000120146736
0.0001200919809
0.0001200266308
0.0001199431887
0.0001198555747
0.0001197517026
0.0001196443638
0.0001195287487
0.0001193986264
0.0001192611876
0.0001191113693
0.0001189471642
0.0001187701721
0.0001185870518
0.0001183842115
0.000118163423
0.0001179367737
0.000117697974
0.000117450195
0.0001171861782
0.0001169160278
0.0001166338397
0.0001163437943
0.0001160484447
0.0001157487181
0.0001154435267
0.0001151313586
0.0001148194549
0.0001144978502
0.000114178987
0.0001138548004
0.0001135378391
0.0001132175151
0.0001128949135
0.0001125732036
0.0001122599668
0.0001119449347
0.000111636009
0.0001113278066
0.0001110243642
0.0001107298284
0.0001104373408
0.0001101491606
0.0001098594557
0.000109578119
0.0001093052726
0.0001090364073
0.0001202059568
0.0001201917158
0.0001201611587
0.0001201169684
0.0001200633066
0.0001199942597
0.00011991165
0.0001198232677
0.0001197177631
0.0001196112807
0.0001194913321
0.0001193637308
0.0001192219104
0.0001190712973
0.0001189026965
0.000118725103
0.0001185377498
0.0001183330447
0.0001181098591
0.0001178833312
0.0001176410261
0.0001173916177
0.0001171267764
0.0001168539783
0.0001165731275
0.0001162846331
0.0001159866858
0.0001156865012
0.0001153836032
0.0001150708092
0.000114759008
0.0001144399981
0.0001141215547
0.0001138006805
0.0001134870576
0.0001131679617
0.0001128468868
0.000112528971
0.0001122194918
0.0001119066762
0.0001116016336
0.0001112960371
0.0001109965842
0.0001107059631
0.0001104165415
0.0001101320814
0.0001098459928
0.0001095685967
0.0001092996153
0.0001090344678
0.0001201760793
0.000120161648
0.0001201306881
0.0001200887691
0.0001200344396
0.0001199616872
0.0001198812038
0.000119788795
0.0001196855011
0.000119578089
0.0001194538141
0.0001193268548
0.000119182609
0.0001190303775
0.0001188582786
0.0001186801328
0.0001184885677
0.0001182798029
0.0001180565591
0.0001178295395
0.0001175844147
0.000117331839
0.0001170678795
0.0001167924911
0.0001165124281
0.0001162260687
0.0001159264911
0.0001156250645
0.0001153229012
0.0001150110645
0.0001146990842
0.0001143830532
0.0001140650153
0.0001137474444
0.0001134361215
0.0001131192853
0.0001127997789
0.0001124855838
0.0001121791598
0.0001118691994
0.0001115679832
0.0001112649844
0.000110969426
0.0001106826468
0.0001103962335
0.000110115024
0.0001098328635
0.0001095593161
0.000109294105
0.0001090325801
0.0001201459825
0.0001201313629
0.0001201025306
0.0001200603834
0.0001200026623
0.0001199289791
0.0001198506039
0.0001197541708
0.0001196531199
0.0001195447989
0.0001194185458
0.0001192883734
0.000119143281
0.0001189866863
0.0001188139012
0.000118635255
0.0001184395384
0.0001182267254
0.0001180034768
0.0001177728425
0.0001175281326
0.0001172724203
0.0001170093716
0.0001167314746
0.0001164492595
0.0001161636982
0.0001158667376
0.000115564233
0.0001152612714
0.0001149520221
0.0001146398624
0.000114326815
0.0001140092475
0.0001136949303
0.0001133846702
0.0001130713256
0.0001127534043
0.0001124428883
0.0001121385124
0.0001118323629
0.0001115349278
0.000111234499
0.0001109427799
0.000110659784
0.0001103763323
0.0001100983181
0.0001098200124
0.0001095502375
0.0001092887178
0.000109030736
0.0001201167646
0.0001201033202
0.0001200744881
0.0001200317004
0.0001199705786
0.000119899089
0.0001198183465
0.00011972058
0.000119620668
0.0001195081726
0.0001193843659
0.0001192498697
0.0001191040014
0.0001189430316
0.0001187696339
0.0001185900875
0.000118390661
0.000118173881
0.0001179506246
0.0001177164035
0.0001174721577
0.0001172133874
0.0001169489854
0.0001166708663
0.0001163865388
0.0001160992465
0.0001158042884
0.0001155039301
0.0001152001851
0.0001148935449
0.0001145812583
0.0001142711492
0.0001139540873
0.0001136430117
0.0001133338128
0.0001130228432
0.0001127076061
0.0001124007521
0.0001120984096
0.0001117960385
0.0001115011936
0.0001112044663
0.0001109165435
0.0001106372847
0.000110356778
0.0001100818959
0.0001098073864
0.0001095413229
0.000109283431
0.0001090289276
0.0001200890713
0.0001200754624
0.0001200462827
0.0001200001629
0.0001199383441
0.0001198690804
0.0001197844766
0.000119688956
0.0001195881836
0.0001194714861
0.0001193501886
0.0001192114362
0.0001190647843
0.0001188995083
0.0001187254958
0.0001185417676
0.0001183410014
0.0001181212752
0.0001178980714
0.0001176603099
0.0001174158733
0.0001171547129
0.000116887605
0.0001166107104
0.0001163262212
0.0001160352574
0.0001157423008
0.0001154441246
0.0001151396097
0.0001148355411
0.0001145231587
0.0001142144856
0.0001138994128
0.0001135916039
0.0001132834319
0.0001129738755
0.0001126622623
0.0001123590822
0.000112058732
0.0001117601123
0.0001114676947
0.0001111747856
0.0001108906255
0.0001106150682
0.0001103374789
0.0001100656951
0.0001097949368
0.0001095325372
0.0001092782234
0.0001090271474
0.0001200612159
0.0001200474481
0.0001200164358
0.0001199684836
0.0001199081492
0.0001198389891
0.0001197505466
0.0001196573081
0.0001195557077
0.0001194354605
0.0001193129152
0.0001191731246
0.0001190243826
0.0001188561996
0.0001186816157
0.0001184937277
0.0001182889256
0.0001180690468
0.0001178458855
0.0001176046402
0.0001173569647
0.0001170965214
0.000116826702
0.0001165510209
0.00011626796
0.0001159750367
0.0001156808189
0.0001153847909
0.0001150795364
0.0001147762499
0.0001144655131
0.0001141571202
0.0001138451723
0.0001135405998
0.0001132334699
0.0001129252994
0.0001126172902
0.0001123177552
0.0001120193873
0.0001117245214
0.000111434491
0.0001111453742
0.0001108649502
0.0001105922829
0.000110318372
0.0001100496617
0.0001097826209
0.0001095238496
0.0001092730762
0.0001090253889
0.0001200332117
0.0001200179307
0.0001199851537
0.0001199366928
0.0001198787006
0.0001198062477
0.0001197180345
0.0001196257204
0.0001195212297
0.0001194023318
0.0001192756291
0.0001191350631
0.0001189821026
0.0001188132458
0.0001186381438
0.0001184461709
0.0001182373655
0.0001180173806
0.0001177910762
0.0001175495766
0.0001172986868
0.0001170389742
0.0001167665002
0.0001164901743
0.0001162102968
0.0001159156032
0.0001156199839
0.0001153245775
0.0001150200179
0.0001147163632
0.0001144083903
0.0001141002329
0.0001137914128
0.0001134899955
0.0001131839173
0.0001128770854
0.000112572686
0.0001122767265
0.0001119803241
0.0001116891921
0.0001114015251
0.0001111161755
0.0001108394665
0.0001105696054
0.0001102994118
0.0001100337552
0.0001097704055
0.0001095152354
0.0001092679743
0.0001090236465
0.0001200023084
0.000119986864
0.0001199537604
0.000119907093
0.000119849227
0.0001197731746
0.0001196873104
0.0001195942938
0.0001194858584
0.0001193694637
0.0001192387033
0.0001190974495
0.000118940337
0.000118770902
0.0001185952889
0.0001183993436
0.0001181866431
0.0001179665363
0.0001177366575
0.000117495444
0.0001172413873
0.0001169820499
0.0001167072452
0.0001164286086
0.0001161474649
0.0001158563646
0.0001155599885
0.0001152635389
0.00011496128
0.000114657194
0.0001143519457
0.000114043963
0.0001137382001
0.0001134389829
0.0001131348126
0.0001128292896
0.0001125284434
0.000112236014
0.000111941581
0.0001116541124
0.0001113687846
0.0001110871712
0.0001108141719
0.0001105470749
0.0001102805744
0.0001100179524
0.0001097582712
0.0001095066796
0.0001092629078
0.0001090219168
0.000119971262
0.0001199556807
0.0001199229458
0.0001198781323
0.0001198182501
0.0001197402134
0.0001196567651
0.0001195631286
0.0001194508681
0.0001193359311
0.0001192023762
0.0001190604882
0.0001188994031
0.0001187294343
0.0001185499147
0.0001183535019
0.0001181371375
0.0001179169785
0.0001176835963
0.000117442649
0.000117185517
0.0001169233565
0.0001166494293
0.0001163684763
0.0001160853646
0.0001157958781
0.0001155012657
0.0001152037152
0.0001149036805
0.0001145991109
0.0001142964574
0.0001139886386
0.0001136857833
0.0001133873152
0.0001130863468
0.0001127821139
0.0001124847014
0.0001121957311
0.000111903226
0.0001116193562
0.0001113363277
0.000111058417
0.0001107890738
0.0001105247117
0.0001102618716
0.0001100022591
0.0001097462188
0.0001094981805
0.0001092578744
0.0001090201982
0.0001199400974
0.000119924868
0.0001198943254
0.0001198491952
0.0001197860197
0.0001197097287
0.0001196265397
0.0001195311881
0.0001194187781
0.0001193010016
0.0001191668975
0.0001190230513
0.000118859662
0.0001186892761
0.0001185060298
0.0001183059573
0.0001180894117
0.0001178692397
0.0001176325486
0.0001173895635
0.000117131738
0.0001168668388
0.0001165937503
0.0001163132503
0.0001160257765
0.0001157374279
0.000115444479
0.0001151457753
0.0001148477889
0.0001145426966
0.0001142422366
0.0001139347072
0.0001136346294
0.0001133367942
0.0001130384384
0.0001127358504
0.0001124417475
0.0001121544751
0.0001118654651
0.0001115851002
0.000111304305
0.0001110300356
0.0001107642676
0.0001105025923
0.0001102433611
0.0001099867189
0.0001097342789
0.0001094897578
0.0001092528848
0.000109018494
0.0001199107281
0.0001198964033
0.0001198657018
0.0001198188601
0.0001197540009
0.0001196803225
0.0001195968009
0.0001194980818
0.0001193883305
0.0001192671103
0.0001191326453
0.0001189853237
0.0001188216031
0.0001186509814
0.0001184642976
0.0001182608524
0.0001180442723
0.0001178230743
0.0001175843581
0.0001173384377
0.000117081062
0.0001168135345
0.0001165411866
0.0001162615973
0.000115972148
0.000115682061
0.0001153905803
0.0001150907043
0.0001147936141
0.0001144888242
0.0001141880865
0.0001138829746
0.0001135854815
0.0001132881188
0.0001129906194
0.0001126910831
0.0001124001068
0.0001121143877
0.0001118287117
0.0001115517
0.0001112730598
0.0001110022762
0.0001107399709
0.0001104808989
0.0001102251851
0.0001099714421
0.0001097225287
0.0001094814604
0.0001092479646
0.0001090168116
0.0001198822621
0.0001198679002
0.0001198371183
0.0001197873287
0.0001197232011
0.0001196513852
0.0001195677223
0.0001194659288
0.0001193589658
0.0001192346654
0.0001191000941
0.0001189496796
0.0001187859034
0.0001186152333
0.0001184255719
0.0001182191593
0.0001180026998
0.0001177787025
0.0001175402361
0.0001172916793
0.000117034757
0.0001167648715
0.0001164914376
0.0001162143468
0.0001159230205
0.0001156312809
0.0001153403413
0.0001150399142
0.0001147418911
0.0001144388438
0.0001141376884
0.0001138346856
0.0001135394369
0.0001132423767
0.0001129455222
0.0001126487265
0.0001123606152
0.000112076222
0.000111793617
0.0001115192577
0.0001112430632
0.0001109755569
0.0001107165304
0.0001104599255
0.0001102075786
0.000109956619
0.0001097111105
0.000109473387
0.0001092431713
0.0001090151701
0.0001198537381
0.000119839386
0.0001198059867
0.0001197560561
0.0001196948494
0.0001196231086
0.0001195390485
0.0001194356503
0.0001193293607
0.0001192041583
0.0001190697816
0.0001189168403
0.0001187533307
0.0001185819077
0.0001183908754
0.0001181821339
0.0001179660125
0.0001177397786
0.0001175017398
0.0001172510468
0.0001169945982
0.000116722734
0.0001164474256
0.0001161697653
0.0001158804169
0.0001155871494
0.0001152948559
0.00011499549
0.0001146964715
0.0001143948029
0.0001140930337
0.0001137917183
0.0001134982403
0.0001132012765
0.000112904771
0.0001126102756
0.0001123245831
0.0001120412377
0.0001117613036
0.0001114884994
0.0001112152093
0.0001109506486
0.0001106945962
0.0001104402289
0.0001101909858
0.0001099426011
0.0001097002758
0.0001094657002
0.0001092385924
0.0001090135963
0.0001198241673
0.0001198084747
0.000119774838
0.0001197257724
0.0001196670589
0.0001195956875
0.0001195093447
0.0001194091239
0.0001193007345
0.0001191761277
0.0001190423726
0.0001188876524
0.0001187248384
0.0001185518026
0.0001183614967
0.0001181512588
0.0001179358799
0.0001177081832
0.0001174708376
0.0001172187417
0.0001169613837
0.0001166896406
0.0001164129724
0.0001161339849
0.0001158458783
0.0001155525411
0.0001152590496
0.000114960371
0.000114660309
0.0001143594913
0.0001140569477
0.0001137567078
0.000113464383
0.0001131672007
0.0001128706845
0.000112577851
0.0001122939128
0.0001120112059
0.0001117333542
0.0001114616663
0.0001111907259
0.0001109285978
0.0001106750486
0.0001104225673
0.0001101760246
0.0001099298992
0.0001096904159
0.0001094586783
0.0001092343941
0.0001090121462
0.000119792754
0.0001197772157
0.0001197439076
0.0001196981267
0.0001196399787
0.0001195693196
0.0001194812293
0.0001193844716
0.0001192746783
0.0001191511999
0.0001190166366
0.0001188630442
0.0001187015272
0.0001185279287
0.0001183377364
0.0001181283327
0.0001179142335
0.0001176862192
0.0001174499814
0.0001171975302
0.0001169397903
0.0001166688426
0.0001163916282
0.0001161120305
0.0001158243892
0.0001155313934
0.0001152370656
0.0001149386247
0.0001146376496
0.0001143370464
0.0001140336527
0.000113733694
0.0001134409077
0.0001131439605
0.0001128470019
0.0001125549072
0.0001122718201
0.0001119891972
0.0001117125363
0.0001114413548
0.0001111719109
0.0001109114055
0.0001106595952
0.0001104084164
0.0001101638793
0.000109919454
0.0001096822033
0.0001094527553
0.0001092308094
0.000109010892
0.000119761328
0.000119746037
0.0001197149803
0.000119670999
0.0001196137855
0.0001195441944
0.0001194550216
0.0001193620715
0.0001192517175
0.0001191300351
0.0001189955615
0.0001188440199
0.0001186845744
0.0001185117404
0.000118322589
0.0001181153509
0.0001179032858
0.0001176764729
0.0001174420059
0.0001171906716
0.0001169339836
0.0001166642437
0.0001163877398
0.0001161086701
0.0001158214974
0.0001155287138
0.0001152342324
0.0001149355805
0.0001146340538
0.0001143329286
0.0001140286956
0.0001137280441
0.0001134342672
0.0001131366157
0.0001128386616
0.0001125460049
0.0001122624728
0.000111979137
0.0001117023401
0.0001114307737
0.0001111615547
0.0001109014673
0.0001106502656
0.0001103995406
0.0001101560041
0.0001099124851
0.000109676589
0.0001094486195
0.0001092282554
0.0001090099749
0.000119716533
0.0001196874528
0.0001196444745
0.0001195885852
0.0001195182129
0.0001194319798
0.000119341695
0.0001192323542
0.000119113231
0.0001189801226
0.000118831551
0.0001186751086
0.0001185046939
0.0001183183811
0.0001181143874
0.0001179053842
0.000117681759
0.0001174500507
0.0001172018584
0.0001169482525
0.0001166804811
0.0001164065987
0.0001161298562
0.0001158434873
0.0001155510867
0.0001152577484
0.0001149586433
0.000114657466
0.0001143551681
0.0001140505082
0.0001137481465
0.0001134533235
0.0001131536014
0.0001128541848
0.0001125592983
0.000112273602
0.0001119885864
0.000111709767
0.0001114365895
0.0001111656615
0.0001109040917
0.0001106516477
0.0001103999437
0.0001101556356
0.0001099115741
0.0001096754211
0.0001094474636
0.0001092273733
0.0001090095957
)
;

boundaryField
{
    front_top
    {
        type            wedge;
    }
    front_middle
    {
        type            wedge;
    }
    front_bottom
    {
        type            wedge;
    }
    back_top
    {
        type            wedge;
    }
    back_middle
    {
        type            wedge;
    }
    back_bottom
    {
        type            wedge;
    }
    axis_top
    {
        type            symmetryPlane;
    }
    axis_middle
    {
        type            symmetryPlane;
    }
    axis_bottom
    {
        type            symmetryPlane;
    }
    wall_top
    {
        type            calculated;
        value           nonuniform 0();
    }
    wall_middle
    {
        type            calculated;
        value           uniform 0.0001089022317;
    }
    wall_bottom
    {
        type            calculated;
        value           nonuniform 0();
    }
    inlet
    {
        type            calculated;
        value           nonuniform 0();
    }
    outlet
    {
        type            calculated;
        value           nonuniform 0();
    }
    procBoundary3to2
    {
        type            processor;
        value           nonuniform List<scalar> 
51
(
0.0001197300962
0.0001197300962
0.0001196884396
0.0001196602639
0.000119618637
0.0001195644707
0.000119493987
0.0001194123702
0.0001193230706
0.0001192169398
0.0001191012379
0.0001189709431
0.0001188264007
0.0001186740506
0.000118507981
0.0001183266292
0.0001181272169
0.0001179225834
0.0001177046094
0.000117476994
0.0001172345543
0.000116986713
0.0001167221466
0.0001164535133
0.0001161816896
0.0001158954592
0.0001156055364
0.0001153154371
0.0001150160242
0.0001147168095
0.0001144129109
0.0001141088683
0.0001138037562
0.0001135060673
0.0001132048149
0.0001129035644
0.0001126043081
0.0001123141581
0.0001120261893
0.0001117426909
0.0001114661555
0.0001111907192
0.0001109249084
0.0001106685463
0.000110413822
0.0001101662423
0.0001099196373
0.0001096809805
0.0001094509427
0.0001092291644
0.0001090100885
)
;
    }
    procBoundary3to4
    {
        type            processor;
        value           nonuniform List<scalar> 
51
(
0.0001204174902
0.0001204059511
0.0001203811585
0.0001203443582
0.0001202961937
0.000120237148
0.0001201613491
0.0001200788433
0.0001199855245
0.0001198823067
0.0001197695164
0.0001196510925
0.0001195267724
0.0001193891275
0.000119243034
0.0001190861937
0.0001189126256
0.0001187290778
0.0001184830106
0.0001184830106
0.0001182671447
0.0001180373457
0.0001178019494
0.0001175497812
0.0001172872524
0.0001170155538
0.0001167284342
0.0001164354057
0.0001161373654
0.0001158282574
0.0001155131477
0.0001151937758
0.0001148704965
0.0001145390819
0.0001142088363
0.000113870966
0.0001135400391
0.0001132049985
0.0001128661789
0.0001125287201
0.000112199632
0.0001118655346
0.0001115400668
0.0001112108488
0.0001108903547
0.0001105775285
0.0001102630223
0.0001099506591
0.0001096427196
0.000109343735
0.0001090496276
)
;
    }
}


// ************************************************************************* //
